chemcompute.org
{'UTCtimestamp': '2022-10-07T21:27:02.207810', 'cluster': 'jetstream2', 'clusterJobNumber': '121642', 'status': 'RUNNING', 'nodeList': 'chemcompute-node-1'}
----- GAMESS execution script 'rungms' -----
This job is running on host chemcompute-node-1.novalocal
under operating system Linux at Fri Oct 7 21:27:06 UTC 2022
SLURM has assigned the following compute nodes to this run:
Available scratch disk space (Kbyte units) at beginning of the job is
Filesystem     1K-blocks     Used Available Use% Mounted on
/dev/sda1       62903276 11585424  51317852  19% /
GAMESS temporary binary files will be written to /scratch/121642
GAMESS supplementary output files will be written to /data/slurm/46/461752
Copying input file 461752.inp to your run's scratch directory...
The generated host list is
chemcompute-node-1.novalocal

 Distributed Data Interface kickoff program.
 Initiating 1 compute processes on 1 nodes to run the following command:
 /data/gamess-2019R1-avx2-ddi/gamess.00.x 461752 

          ******************************************************
          *         GAMESS VERSION = 30 JUN 2019 (R1)          *
          *             FROM IOWA STATE UNIVERSITY             *
          * M.W.SCHMIDT, K.K.BALDRIDGE, J.A.BOATZ, S.T.ELBERT, *
          *   M.S.GORDON, J.H.JENSEN, S.KOSEKI, N.MATSUNAGA,   *
          *          K.A.NGUYEN, S.J.SU, T.L.WINDUS,           *
          *       TOGETHER WITH M.DUPUIS, J.A.MONTGOMERY       *
          *         J.COMPUT.CHEM.  14, 1347-1363(1993)        *
          **************** 64 BIT INTEL VERSION ****************

  SINCE 1993, STUDENTS AND POSTDOCS WORKING AT IOWA STATE UNIVERSITY
  AND ALSO IN THEIR VARIOUS JOBS AFTER LEAVING ISU HAVE MADE IMPORTANT
  CONTRIBUTIONS TO THE CODE:
     IVANA ADAMOVIC, CHRISTINE AIKENS, YURI ALEXEEV, POOJA ARORA,
     ANDREY ASADCHEV, ROB BELL, PRADIPTA BANDYOPADHYAY, JONATHAN BENTZ,
     COLLEEN BERTONI, BRETT BODE, KURT BRORSEN, CALEB CARLIN, GALINA CHABAN,
     WEI CHEN, CHEOL HO CHOI, PAUL DAY, ALBERT DEFUSCO, NUWAN DESILVA,
     TIM DUDLEY, DMITRI FEDOROV, ALEX FINDLATER, GRAHAM FLETCHER, 
     MARK FREITAG, KURT GLAESEMANN, ANASTASIA GUNINA,
     DAN KEMP, GRANT MERRILL, NORIYUKI MINEZAWA, JONATHAN MULLIN,
     TAKESHI NAGATA, SEAN NEDD, HEATHER NETZLOFF, BOSILJKA NJEGIC, RYAN OLSON,
     MIKE PAK, BUU PHAM,
     SPENCER PRUITT, LUKE ROSKOP, JIM SHOEMAKER, LYUDMILA SLIPCHENKO,
     TONY SMITH, SAROM SOK LEANG, JIE SONG, TETSUYA TAKETSUGU, SIMON WEBB,
     PENG XU, SOOHAENG YOO, FEDERICO ZAHARIEV

  ADDITIONAL CODE HAS BEEN PROVIDED BY COLLABORATORS IN OTHER GROUPS:
     IOWA STATE UNIVERSITY:
          JOE IVANIC, AARON WEST, LAIMUTIS BYTAUTAS, KLAUS RUEDENBERG
     UNIVERSITY OF TOKYO: KIMIHIKO HIRAO, TAKAHITO NAKAJIMA,
          TAKAO TSUNEDA, MUNEAKI KAMIYA, SUSUMU YANAGISAWA,
          KIYOSHI YAGI, MAHITO CHIBA, SEIKEN TOKURA, NAOAKI KAWAKAMI
     UNIVERSITY OF AARHUS: FRANK JENSEN
     UNIVERSITY OF IOWA: VISVALDAS KAIRYS, HUI LI
     NATIONAL INST. OF STANDARDS AND TECHNOLOGY: WALT STEVENS, DAVID GARMER
     UNIVERSITY OF PISA: BENEDETTA MENNUCCI, JACOPO TOMASI
     UNIVERSITY OF MEMPHIS: HENRY KURTZ, PRAKASHAN KORAMBATH
     UNIVERSITY OF ALBERTA: TOBY ZENG, MARIUSZ KLOBUKOWSKI
     UNIVERSITY OF NEW ENGLAND: MARK SPACKMAN
     MIE UNIVERSITY: HIROAKI UMEDA
     NAT. INST. OF ADVANCED INDUSTRIAL SCIENCE AND TECHNOLOGY: KAZUO KITAURA
     MICHIGAN STATE UNIVERSITY:
          KAROL KOWALSKI, MARTA WLOCH, JEFFREY GOUR, JESSE LUTZ,
          WEI LI, JUN SHEN, J. EMILIANO DEUSTUA, PIOTR PIECUCH
     UNIVERSITY OF MINNESOTA:
          YINAN SHU
     UNIVERSITY OF SILESIA: MONIKA MUSIAL, STANISLAW KUCHARSKI
     FACULTES UNIVERSITAIRES NOTRE-DAME DE LA PAIX:
          OLIVIER QUINET, BENOIT CHAMPAGNE
     UNIVERSITY OF CALIFORNIA - SANTA BARBARA: BERNARD KIRTMAN
     INSTITUTE FOR MOLECULAR SCIENCE:
          KAZUYA ISHIMURA, MICHIO KATOUDA, AND SHIGERU NAGASE
     UNIVERSITY OF NOTRE DAME: ANNA POMOGAEVA, DAN CHIPMAN
     KYUSHU UNIVERSITY:
          HARUYUKI NAKANO,
          FENG LONG GU, JACEK KORCHOWIEC, MARCIN MAKOWSKI, AND YURIKO AOKI,
          HIROTOSHI MORI AND EISAKU MIYOSHI
     PENNSYLVANIA STATE UNIVERSITY:
          TZVETELIN IORDANOV, CHET SWALINA, JONATHAN SKONE,
          SHARON HAMMES-SCHIFFER
     WASEDA UNIVERSITY:
          MASATO KOBAYASHI, TOMOKO AKAMA, TSUGUKI TOUMA,
          TAKESHI YOSHIKAWA, YASUHIRO IKABATA, JUNJI SEINO,
          YUYA NAKAJIMA, HIROMI NAKAI
     NANJING UNIVERSITY: SHUHUA LI
     UNIVERSITY OF NEBRASKA:
          PEIFENG SU, DEJUN SI, NANDUN THELLAMUREGE, YALI WANG, HUI LI
     UNIVERSITY OF ZURICH: ROBERTO PEVERATI, KIM BALDRIDGE
     N. COPERNICUS UNIVERSITY AND JACKSON STATE UNIVERSITY:
          MARIA BARYSZ
     UNIVERSITY OF COPENHAGEN: Jimmy Kromann, CASPER STEINMANN
     TOKYO INSTITUTE OF TECHNOLOGY: HIROYA NAKATA
     NAGOYA UNIVERSITY: YOSHIO NISHIMOTO, STEPHAN IRLE
     MOSCOW STATE UNIVERSITY: VLADIMIR MIRONOV
     A.N.NESMEYANOV INSTITUTE OF ORGANOELEMENT COMPOUNDS OF RUSSIAN ACADEMY OF SCIENCES:
          IGOR S. GERASIMOV

 EXECUTION OF GAMESS BEGUN Fri Oct  7 21:27:06 2022

            ECHO OF THE FIRST FEW INPUT CARDS -
 INPUT CARD>!                                                                               
 INPUT CARD>!   GAMESS Calculation input file                                               
 INPUT CARD>!                                                                               
 INPUT CARD>!                                                                               
 INPUT CARD> $CONTRL SCFTYP=RHF MAXIT=200 RUNTYP=OPTIMIZE                                   
 INPUT CARD>         COORD=UNIQUE MULT=1                                                    
 INPUT CARD>         ICHARG=0                                                               
 INPUT CARD>         DFTTYP=B3LYP                                                           
 INPUT CARD>         MOLPLT=.FALSE. PLTORB=.FALSE.  $END                                    
 INPUT CARD> $SYSTEM TIMLIM=2879 MWORDS=250  $END                                           
 INPUT CARD>                                                                                
 INPUT CARD> $FORCE METHOD=SEMINUM NVIB=2 $END                                              
 INPUT CARD> $STATPT OPTTOL=0.0005 NSTEP=999 $END                                           
 INPUT CARD> $STATPT IHREP=0 HSSEND=.TRUE.  $END                                            
 INPUT CARD>                                                                                
 INPUT CARD> $DFT    METHOD=GRID  NLEB=590  $END                                            
 INPUT CARD>                                                                                
 INPUT CARD> $BASIS  GBASIS=N21 NGAUSS=3 $END                                               
 INPUT CARD>                                                                                
 INPUT CARD> $SCF    DIRSCF=.T. $END                                                        
 INPUT CARD> $GUESS  GUESS=HUCKEL  $END                                                     
 INPUT CARD>                                                                                
 INPUT CARD> $DATA                                                                          
 INPUT CARD>                                                                                
 INPUT CARD>  C1                                                                            
 INPUT CARD>C     6.0    -1.23609    -0.76196     0.23026                                   
 INPUT CARD>C     6.0    -0.01953     0.09791    -0.00725                                   
 INPUT CARD>O     8.0     1.16709    -0.54140    -0.14183                                   
 INPUT CARD>N     7.0    -0.06594     1.37984    -0.07003                                   
 INPUT CARD>H     1.0    -2.00776    -0.50521    -0.50135                                   
 INPUT CARD>H     1.0    -1.61466    -0.57428     1.23906                                   
 INPUT CARD>H     1.0    -0.99832    -1.82484     0.13081                                   
 INPUT CARD>H     1.0     1.08125    -1.50543    -0.07066                                   
 INPUT CARD>H     1.0     0.88362     1.73693    -0.22919                                   
 INPUT CARD> $END                                                                           
 INPUT CARD>                                                                                
 INPUT CARD>                                                                                
 INPUT CARD>! Customizations after this line are persisted when using Do More Calculations  
  250000000 WORDS OF MEMORY AVAILABLE

     BASIS OPTIONS
     -------------
     GBASIS=N21          IGAUSS=       3      POLAR=NONE    
     NDFUNC=       0     NFFUNC=       0     DIFFSP=       F
     NPFUNC=       0      DIFFS=       F     BASNAM=        


     RUN TITLE
     ---------
                                                                                 

 THE POINT GROUP OF THE MOLECULE IS C1      
 THE ORDER OF THE PRINCIPAL AXIS IS     0

 ATOM      ATOMIC                      COORDINATES (BOHR)
           CHARGE         X                   Y                   Z
 C           6.0    -2.3358713962       -1.4398956136        0.4351283059
 C           6.0    -0.0369063485        0.1850230715       -0.0137005134
 O           8.0     2.2054803030       -1.0230976498       -0.2680198368
 N           7.0    -0.1246085316        2.6075195069       -0.1323375109
 H           1.0    -3.7941162491       -0.9547084663       -0.9474141239
 H           1.0    -3.0512649633       -1.0852318402        2.3414838823
 H           1.0    -1.8865512481       -3.4484475714        0.2471950565
 H           1.0     2.0432662242       -2.8448501937       -0.1335280383
 H           1.0     1.6697996773        3.2823217599       -0.4331062991

          INTERNUCLEAR DISTANCES (ANGS.)
          ------------------------------

                1 C          2 C          3 O          4 N          5 H     

   1 C       0.0000000    1.5085774 *  2.4417968 *  2.4590104 *  1.0939142 *
   2 C       1.5085774 *  0.0000000    1.3545834 *  1.2843052 *  2.1356374 *
   3 O       2.4417968 *  1.3545834 *  0.0000000    2.2840056 *  3.1953461  
   4 N       2.4590104 *  1.2843052 *  2.2840056 *  0.0000000    2.7404590 *
   5 H       1.0939142 *  2.1356374 *  3.1953461    2.7404590 *  0.0000000  
   6 H       1.0937168 *  2.1329716 *  3.1058125    2.8161739 *  1.7855882 *
   7 H       1.0936813 *  2.1619570 *  2.5319066 *  3.3435973    1.7776441 *
   8 H       2.4522164 *  1.9458768 *  0.9704574 *  3.1049683    3.2753499  
   9 H       3.3088844    1.8844956 *  2.2975584 *  1.0268931 *  3.6689700  

                6 H          7 H          8 H          9 H     

   1 C       1.0937168 *  1.0936813 *  2.4522164 *  3.3088844  
   2 C       2.1329716 *  2.1619570 *  1.9458768 *  1.8844956 *
   3 O       3.1058125    2.5319066 *  0.9704574 *  2.2975584 *
   4 N       2.8161739 *  3.3435973    3.1049683    1.0268931 *
   5 H       1.7855882 *  1.7776441 *  3.2753499    3.6689700  
   6 H       0.0000000    1.7810091 *  3.1385247    3.7065958  
   7 H       1.7810091 *  0.0000000    2.1135809 *  4.0444411  
   8 H       3.1385247    2.1135809 *  0.0000000    3.2522435  
   9 H       3.7065958    4.0444411    3.2522435    0.0000000  

  * ... LESS THAN  3.000


     ATOMIC BASIS SET
     ----------------
 THE CONTRACTED PRIMITIVE FUNCTIONS HAVE BEEN UNNORMALIZED
 THE CONTRACTED BASIS FUNCTIONS ARE NOW NORMALIZED TO UNITY

  SHELL TYPE  PRIMITIVE        EXPONENT          CONTRACTION COEFFICIENT(S)

 C         

      1   S       1           172.2560000    0.061766907377
      1   S       2            25.9109000    0.358794042852
      1   S       3             5.5333500    0.700713083689

      2   L       4             3.6649800   -0.395895162119    0.236459946619
      2   L       5             0.7705450    1.215834355681    0.860618805716

      3   L       6             0.1958570    1.000000000000    1.000000000000

 C         

      4   S       7           172.2560000    0.061766907377
      4   S       8            25.9109000    0.358794042852
      4   S       9             5.5333500    0.700713083689

      5   L      10             3.6649800   -0.395895162119    0.236459946619
      5   L      11             0.7705450    1.215834355681    0.860618805716

      6   L      12             0.1958570    1.000000000000    1.000000000000

 O         

      7   S      13           322.0370000    0.059239393389
      7   S      14            48.4308000    0.351499960776
      7   S      15            10.4206000    0.707657921031

      8   L      16             7.4029400   -0.404453583190    0.244586106967
      8   L      17             1.5762000    1.221561761397    0.853955373466

      9   L      18             0.3736840    1.000000000000    1.000000000000

 N         

     10   S      19           242.7660000    0.059865700508
     10   S      20            36.4851000    0.352955002994
     10   S      21             7.8144900    0.706513005993

     11   L      22             5.4252200   -0.413300077430    0.237972016222
     11   L      23             1.1491500    1.224417266851    0.858953058551

     12   L      24             0.2832050    1.000000000000    1.000000000000

 H         

     13   S      25             5.4471780    0.156284978695
     13   S      26             0.8245472    0.904690876670

     14   S      27             0.1831916    1.000000000000

 H         

     15   S      28             5.4471780    0.156284978695
     15   S      29             0.8245472    0.904690876670

     16   S      30             0.1831916    1.000000000000

 H         

     17   S      31             5.4471780    0.156284978695
     17   S      32             0.8245472    0.904690876670

     18   S      33             0.1831916    1.000000000000

 H         

     19   S      34             5.4471780    0.156284978695
     19   S      35             0.8245472    0.904690876670

     20   S      36             0.1831916    1.000000000000

 H         

     21   S      37             5.4471780    0.156284978695
     21   S      38             0.8245472    0.904690876670

     22   S      39             0.1831916    1.000000000000

 TOTAL NUMBER OF BASIS SET SHELLS             =   22
 NUMBER OF CARTESIAN GAUSSIAN BASIS FUNCTIONS =   46
 NUMBER OF ELECTRONS                          =   32
 CHARGE OF MOLECULE                           =    0
 SPIN MULTIPLICITY                            =    1
 NUMBER OF OCCUPIED ORBITALS (ALPHA)          =   16
 NUMBER OF OCCUPIED ORBITALS (BETA )          =   16
 TOTAL NUMBER OF ATOMS                        =    9
 THE NUCLEAR REPULSION ENERGY IS      121.0158071264

 SELECTED MURRAY-HANDY-LAMING RADIAL GRID

 LEGACY BECKE'S FUZZY CELL METHOD

 SELECTED ORIGINAL BECKE'S PARTITION FUNCTION

     LEBEDEV GRID-BASED DFT OPTIONS
     ------------------------------
     DFTTYP=B3LYP   
     NRAD  =      96     NLEB  =     590
     NRAD0 =      24     NLEB0 =     110
     SWOFF =    5.00E-03 (PURE SCF -> DFT)
     SWITCH=    3.00E-04 (COARSE -> TIGHT GRID)
     THRESH=    0.00E+00 GTHRE=    1.00E+00

 GRIMME'S EMPIRICAL DISPERSION CORRECTION= F

     $CONTRL OPTIONS
     ---------------
 SCFTYP=RHF          RUNTYP=OPTIMIZE     EXETYP=RUN     
 MPLEVL=       0     CITYP =NONE         CCTYP =NONE         VBTYP =NONE    
 DFTTYP=B3LYP        TDDFT =NONE    
 MULT  =       1     ICHARG=       0     NZVAR =       0     COORD =UNIQUE  
 PP    =NONE         RELWFN=NONE         LOCAL =NONE         NUMGRD=       F
 ISPHER=      -1     NOSYM =       0     MAXIT =     200     UNITS =ANGS    
 PLTORB=       F     MOLPLT=       F     AIMPAC=       F     FRIEND=        
 NPRINT=       7     IREST =       0     GEOM  =INPUT   
 NORMF =       0     NORMP =       0     ITOL  =      20     ICUT  =       9
 INTTYP=BEST         GRDTYP=BEST         QMTTOL= 1.0E-06

     $SYSTEM OPTIONS
     ---------------
  REPLICATED MEMORY=   250000000 WORDS (ON EVERY NODE).
 DISTRIBUTED MEMDDI=           0 MILLION WORDS IN AGGREGATE,
 MEMDDI DISTRIBUTED OVER   1 PROCESSORS IS           0 WORDS/PROCESSOR.
 TOTAL MEMORY REQUESTED ON EACH PROCESSOR=   250000000 WORDS.
 TIMLIM=        2879.00 MINUTES, OR       2.0 DAYS.
 PARALL= F  BALTYP=  DLB     KDIAG=    0  COREFL= F
 MXSEQ2=     300 MXSEQ3=     150  mem10=         0

          ----------------
          PROPERTIES INPUT
          ----------------

     MOMENTS            FIELD           POTENTIAL          DENSITY
 IEMOM =       1   IEFLD =       0   IEPOT =       0   IEDEN =       0
 WHERE =COMASS     WHERE =NUCLEI     WHERE =NUCLEI     WHERE =NUCLEI  
 OUTPUT=BOTH       OUTPUT=BOTH       OUTPUT=BOTH       OUTPUT=BOTH    
 IEMINT=       0   IEFINT=       0                     IEDINT=       0
                                                       MORB  =       0
          EXTRAPOLATION IN EFFECT
          DIIS IN EFFECT
 ORBITAL PRINTING OPTION: NPREO=     1    46     2     1

     -------------------------------
     INTEGRAL TRANSFORMATION OPTIONS
     -------------------------------
     NWORD  =            0
     CUTOFF = 1.0E-09     MPTRAN =       0
     DIRTRF =       T     AOINTS =DUP     

          ----------------------
          INTEGRAL INPUT OPTIONS
          ----------------------
 NOPK  =       1 NORDER=       0 SCHWRZ=       T

     ------------------------------------------
     THE POINT GROUP IS C1 , NAXIS= 0, ORDER= 1
     ------------------------------------------

     DIMENSIONS OF THE SYMMETRY SUBSPACES ARE
 A   =   46

 ..... DONE SETTING UP THE RUN .....
 STEP CPU TIME =     0.02 TOTAL CPU TIME =          0.0 (      0.0 MIN)
 TOTAL WALL CLOCK TIME=          0.0 SECONDS, CPU UTILIZATION IS    66.67%


          -----------------------------
          STATIONARY POINT LOCATION RUN
          -----------------------------

 OBTAINING INITIAL HESSIAN, HESS=GUESS   
 CARTESIAN COORDINATE OPTIMIZATION USING BADGER'S RULE FORCE CONSTANT GUESS

          PARAMETERS CONTROLLING GEOMETRY SEARCH ARE
          METHOD =QA                  UPHESS =BFGS    
          NNEG   =         0          NFRZ   =         0
          NSTEP  =       999          IFOLOW =         1
          HESS   =GUESS               RESTAR =         F
          IHREP  =         0          HSSEND =         T
          NPRT   =         0          NPUN   =         0
          OPTTOL = 5.000E-04          RMIN   = 1.500E-03
          RMAX   = 1.000E-01          RLIM   = 7.000E-02
          DXMAX  = 3.000E-01          PURIFY =         F
          MOVIE  =         F          TRUPD  =         T
          TRMAX  = 5.000E-01          TRMIN  = 5.000E-02
          ITBMAT =         5          STPT   =         F
          STSTEP = 1.000E-02          PROJCT=          T

 BEGINNING GEOMETRY SEARCH POINT NSERCH=   0 ...

 COORDINATES OF ALL ATOMS ARE (ANGS)
   ATOM   CHARGE       X              Y              Z
 ------------------------------------------------------------
 C           6.0  -1.2360900000  -0.7619600000   0.2302600000
 C           6.0  -0.0195300000   0.0979100000  -0.0072500000
 O           8.0   1.1670900000  -0.5414000000  -0.1418300000
 N           7.0  -0.0659400000   1.3798400000  -0.0700300000
 H           1.0  -2.0077600000  -0.5052100000  -0.5013500000
 H           1.0  -1.6146600000  -0.5742800000   1.2390600000
 H           1.0  -0.9983200000  -1.8248400000   0.1308100000
 H           1.0   1.0812500000  -1.5054300000  -0.0706600000
 H           1.0   0.8836200000   1.7369300000  -0.2291900000

          ********************
          1 ELECTRON INTEGRALS
          ********************
 ...... END OF ONE-ELECTRON INTEGRALS ......
 STEP CPU TIME =     0.00 TOTAL CPU TIME =          0.0 (      0.0 MIN)
 TOTAL WALL CLOCK TIME=          0.1 SECONDS, CPU UTILIZATION IS    33.33%

          -------------
          GUESS OPTIONS
          -------------
          GUESS =HUCKEL            NORB  =       0          NORDER=       0
          MIX   =       F          PRTMO =       F          PUNMO =       F
          TOLZ  = 1.0E-08          TOLE  = 1.0E-05
          SYMDEN=       F          PURIFY=       F

 INITIAL GUESS ORBITALS GENERATED BY HUCKEL   ROUTINE.
 HUCKEL GUESS REQUIRES     24478 WORDS.

 SYMMETRIES FOR INITIAL GUESS ORBITALS FOLLOW.   BOTH SET(S).
    16 ORBITALS ARE OCCUPIED (    4 CORE ORBITALS).
     5=A        6=A        7=A        8=A        9=A       10=A       11=A   
    12=A       13=A       14=A       15=A       16=A       17=A       18=A   
    19=A       20=A       21=A       22=A       23=A       24=A       25=A   
    26=A   
 ...... END OF INITIAL ORBITAL SELECTION ......
 STEP CPU TIME =     0.00 TOTAL CPU TIME =          0.0 (      0.0 MIN)
 TOTAL WALL CLOCK TIME=          0.1 SECONDS, CPU UTILIZATION IS    22.22%

                    ----------------------
                    AO INTEGRAL TECHNOLOGY
                    ----------------------
     S,P,L SHELL ROTATED AXIS INTEGRALS, REPROGRAMMED BY
        KAZUYA ISHIMURA (IMS) AND JOSE SIERRA (SYNSTAR).
     S,P,D,L SHELL ROTATED AXIS INTEGRALS PROGRAMMED BY
        KAZUYA ISHIMURA (INSTITUTE FOR MOLECULAR SCIENCE).
     S,P,D,F,G SHELL TO TOTAL QUARTET ANGULAR MOMENTUM SUM 5,
        ERIC PROGRAM BY GRAHAM FLETCHER (ELORET AND NASA ADVANCED
        SUPERCOMPUTING DIVISION, AMES RESEARCH CENTER).
     S,P,D,F,G,L SHELL GENERAL RYS QUADRATURE PROGRAMMED BY
        MICHEL DUPUIS (PACIFIC NORTHWEST NATIONAL LABORATORY).

          --------------------
          2 ELECTRON INTEGRALS
          --------------------

 DIRECT SCF METHOD SKIPS INTEGRAL STORAGE ON DISK.
 DIRECT TRANSFORMATION SKIPS AO INTEGRAL STORAGE ON DISK.
  ...... END OF TWO-ELECTRON INTEGRALS .....
 STEP CPU TIME =     0.01 TOTAL CPU TIME =          0.0 (      0.0 MIN)
 TOTAL WALL CLOCK TIME=          0.1 SECONDS, CPU UTILIZATION IS    23.08%

          --------------------------
             R-B3LYP SCF CALCULATION
          --------------------------

     NUCLEAR ENERGY =       121.0158071264
     MAXIT =  200     NPUNCH=    2
     EXTRAP=T  DAMP=F  SHIFT=F  RSTRCT=F  DIIS=T  DEM=F  SOSCF=F
         DENSITY MATRIX CONVERGENCE THRESHOLD=  2.00E-05
     COARSE -> FINE DFT GRID SWITCH THRESHOLD=  3.00E-04 (SWITCH IN $DFT)
                   HF -> DFT SWITCH THRESHOLD=  5.00E-03 (SWOFF IN $DFT)
     MEMORY REQUIRED FOR RHF ITERS=    658753 WORDS.

 DIRECT SCF CALCULATION, SCHWRZ=T   FDIFF=T,  DIRTHR=  0.00E+00 NITDIR=10
 SCHWARZ INEQUALITY OVERHEAD:      1078 INTEGRALS, T=        0.00

 DFT CODE IS SWITCHING FROM THE FINE GRID NRAD= 96,  NLEB=  590
                      TO THE COARSE GRID NRAD0= 24, NLEB0=  110

     EXCHANGE FUNCTIONAL   =B88&HFX   
     CORRELATION FUNCTIONAL=LYP88&VWN5
     DFT THRESHOLD         =.785E-08
     GRID CHANGE THRESHOLD =.300E-03
 FOR AN EULER-MACLAURIN QUADRATURE USING  96 RADIAL POINTS:
 SMALLEST GAUSSIAN PRIMITIVE EXPONENT=        0.1831915800 OF TYPE -S-
 ON ATOM NUMBER   5 HAS RADIAL NORMALIZATION=  1.000000
  LARGEST GAUSSIAN PRIMITIVE EXPONENT=      322.0370000000 OF TYPE -S-
 ON ATOM NUMBER   3 HAS RADIAL NORMALIZATION=  1.000000
 DFT IS SWITCHED OFF, PERFORMING PURE SCF UNTIL SWOFF THRESHOLD IS REACHED.

                                                                                   NONZERO     BLOCKS
 ITER EX DEM     TOTAL ENERGY        E CHANGE  DENSITY CHANGE    DIIS ERROR      INTEGRALS    SKIPPED
   1  0  0     -206.1642695237  -206.1642695237   0.711285044   0.593357961         538112       4890
          * * *   INITIATING DIIS PROCEDURE   * * *
   2  1  0     -206.6950784395    -0.5308089158   0.201187731   0.162970117         537604       5243
   3  2  0     -206.7407326158    -0.0456541763   0.065312777   0.119942083         536134       5708
   4  3  0     -206.7722005286    -0.0314679129   0.038426632   0.012522162         533537       6206
   5  4  0     -206.7730828564    -0.0008823278   0.005608922   0.002668883         529356       6783
   6  5  0     -206.7731331612    -0.0000503048   0.002138105   0.001852043         521859       7561
 CONVERGED TO SWOFF, SO DFT CALCULATION IS NOW SWITCHED ON.
          * * *   INITIATING DIIS PROCEDURE   * * *
   7  6  0     -207.8768546795    -1.1037215183   0.077540296   0.073470500         538270       4786
   8  7  0     -207.8921754485    -0.0153207690   0.061948115   0.030135302         535869       5846
   9  8  0     -207.8935630938    -0.0013876453   0.028560121   0.037888861         533304       6191
  10  9  0     -207.8965529446    -0.0029898508   0.008354100   0.012359899         530497       6609
  11 10  0     -207.8968423189    -0.0002893744   0.001627155   0.003775958         525012       7284
  12 11  0     -207.8968601621    -0.0000178432   0.000382821   0.000648072         517219       7978
  13 12  0     -207.8968609081    -0.0000007459   0.000074170   0.000066998         508420       8756
 DFT CODE IS SWITCHING BACK TO THE FINE GRID
          * * *   INITIATING DIIS PROCEDURE   * * *
  14 13  0     -207.8989234730    -0.0020625650   0.001777578   0.001504554         538317       4746
  15 14  0     -207.8989321199    -0.0000086469   0.000872757   0.000889326         517243       8021
  16 15  0     -207.8989323379    -0.0000002180   0.000390760   0.000849314         513254       8385
  17 16  0     -207.8989336498    -0.0000013119   0.000134030   0.000178027         508928       8808
  18 17  0     -207.8989337058    -0.0000000560   0.000040412   0.000071222         496979       9835
  19 18  0     -207.8989337155    -0.0000000096   0.000009734   0.000011103         488240      10509
  20 19  0     -207.8989337159    -0.0000000004   0.000001372   0.000001033         471366      11768

          -----------------
          DENSITY CONVERGED
          -----------------
     TIME TO FORM FOCK OPERATORS=       6.0 SECONDS (       0.3 SEC/ITER)
     FOCK TIME ON FIRST ITERATION=       0.0, LAST ITERATION=       0.8
     TIME TO SOLVE SCF EQUATIONS=       0.1 SECONDS (       0.0 SEC/ITER)

 FINAL R-B3LYP ENERGY IS     -207.8989337159 AFTER  20 ITERATIONS
 DFT EXCHANGE + CORRELATION ENERGY =       -22.6517229195
 TOTAL ELECTRON NUMBER             =        31.9999982651

          ------------
          EIGENVECTORS
          ------------

                      1          2          3          4          5
                  -19.0639   -14.1999   -10.2115   -10.1320    -1.0751
                     A          A          A          A          A   
    1  C  1  S    0.000056  -0.000186  -0.006406   0.986323  -0.018056
    2  C  1  S    0.000026  -0.001263  -0.003934   0.112601   0.015843
    3  C  1  X   -0.000079  -0.000065  -0.000886   0.000027   0.018960
    4  C  1  Y   -0.000412  -0.000092  -0.000414  -0.000153   0.006753
    5  C  1  Z    0.000014  -0.000034   0.000223   0.000008  -0.003326
    6  C  1  S    0.000781   0.009497   0.025826  -0.095317   0.023608
    7  C  1  X   -0.004083   0.006959   0.014199  -0.006475   0.010832
    8  C  1  Y    0.006112  -0.003171   0.009578  -0.003488  -0.019690
    9  C  1  Z    0.000330  -0.000653  -0.003074   0.001263   0.000468
   10  C  2  S   -0.000414   0.000079   0.985236   0.005795  -0.095006
   11  C  2  S   -0.000755  -0.000772   0.104169  -0.002377   0.107365
   12  C  2  X    0.001399  -0.000001  -0.000303   0.000539   0.085152
   13  C  2  Y   -0.000725  -0.000117  -0.000839   0.000501  -0.037436
   14  C  2  Z   -0.000164   0.000006   0.000135  -0.000090  -0.009868
   15  C  2  S    0.014823   0.029499  -0.057544   0.022772   0.095181
   16  C  2  X    0.018126   0.004879   0.019267  -0.012841  -0.039689
   17  C  2  Y   -0.012320   0.034675   0.011164  -0.012930  -0.001709
   18  C  2  Z   -0.001909  -0.002672  -0.003613   0.002606   0.005862
   19  O  3  S    0.982635   0.000042   0.000235   0.000025  -0.213837
   20  O  3  S    0.106614   0.000111   0.001440  -0.000101   0.198093
   21  O  3  X   -0.003756   0.000719  -0.000052   0.000192  -0.100264
   22  O  3  Y   -0.000769   0.000636   0.000663  -0.000247  -0.031958
   23  O  3  Z    0.000589  -0.000134  -0.000041  -0.000037   0.016653
   24  O  3  S   -0.056813  -0.000910  -0.000623  -0.000893   0.666605
   25  O  3  X    0.012452  -0.002462   0.001564   0.001121  -0.116134
   26  O  3  Y   -0.001138  -0.005612  -0.004807   0.001579  -0.017716
   27  O  3  Z   -0.001733   0.000657   0.000099  -0.000180   0.018096
   28  N  4  S    0.000022   0.985094   0.000437  -0.000045  -0.033872
   29  N  4  S    0.000043   0.110789   0.000228  -0.000862   0.029219
   30  N  4  X    0.000714   0.003212   0.000800   0.000425   0.014945
   31  N  4  Y    0.000292  -0.004111   0.002130   0.000690  -0.032160
   32  N  4  Z   -0.000110  -0.000256  -0.000242  -0.000124  -0.000387
   33  N  4  S    0.002323  -0.080928   0.000334   0.002782   0.086715
   34  N  4  X   -0.006245  -0.008886  -0.006831   0.000255   0.031647
   35  N  4  Y   -0.001554   0.022001   0.000147  -0.002214  -0.026134
   36  N  4  Z    0.000955   0.000155   0.001050   0.000155  -0.003119
   37  H  5  S   -0.000547   0.000217  -0.001751  -0.000060   0.005793
   38  H  5  S   -0.001182   0.000696   0.002556   0.016002  -0.000634
   39  H  6  S   -0.000242   0.000111  -0.001792  -0.000049   0.005318
   40  H  6  S   -0.001057  -0.000114   0.003001   0.016006  -0.002499
   41  H  7  S    0.001175  -0.001357  -0.001416   0.000027   0.005069
   42  H  7  S    0.001610  -0.001492   0.001226   0.016470  -0.005565
   43  H  8  S    0.003251  -0.001621  -0.001185   0.000175   0.103275
   44  H  8  S    0.004712   0.001868   0.001382   0.000008   0.018391
   45  H  9  S    0.001207   0.003230   0.001353  -0.000015   0.010384
   46  H  9  S    0.001243   0.006851   0.002596   0.002262   0.001836

                      6          7          8          9         10
                   -0.8808    -0.7426    -0.5943    -0.5240    -0.4617
                     A          A          A          A          A   
    1  C  1  S   -0.032691  -0.196784   0.035650   0.052833  -0.019673
    2  C  1  S    0.034652   0.191043  -0.029803  -0.042113   0.014953
    3  C  1  X    0.014495   0.031203   0.065866   0.127689  -0.249822
    4  C  1  Y    0.025002   0.012090   0.025273   0.164823   0.079636
    5  C  1  Z   -0.003539  -0.004998  -0.010717  -0.029180   0.044288
    6  C  1  S    0.046150   0.560843  -0.148181  -0.250411   0.136167
    7  C  1  X   -0.029612   0.019474   0.014330   0.044865  -0.164457
    8  C  1  Y    0.018699  -0.005072  -0.011799   0.082379   0.066785
    9  C  1  Z    0.003422  -0.001425  -0.002367  -0.011043   0.024211
   10  C  2  S   -0.114772  -0.050915  -0.098506  -0.088412   0.022286
   11  C  2  S    0.131867   0.060605   0.114300   0.103644  -0.019701
   12  C  2  X   -0.029405  -0.120995   0.151606  -0.206104   0.046771
   13  C  2  Y    0.173865  -0.120196  -0.110423   0.074975   0.228976
   14  C  2  Z   -0.004922   0.025441  -0.015583   0.026976  -0.014473
   15  C  2  S    0.154313   0.098371   0.306243   0.291806  -0.037466
   16  C  2  X   -0.020168  -0.035016   0.021810  -0.160346   0.081523
   17  C  2  Y   -0.056376  -0.029175  -0.047115  -0.024244   0.220132
   18  C  2  Z    0.006606   0.007331   0.000407   0.025965  -0.019104
   19  O  3  S    0.069005   0.033882   0.019297   0.022203  -0.065288
   20  O  3  S   -0.066047  -0.033480  -0.020398  -0.023670   0.060656
   21  O  3  X   -0.000928  -0.025191  -0.189388   0.021962   0.168643
   22  O  3  Y    0.071829  -0.007941   0.314875  -0.158641   0.131537
   23  O  3  Z   -0.004064   0.004256   0.008565   0.006968  -0.027706
   24  O  3  S   -0.238267  -0.120216  -0.066049  -0.086076   0.270432
   25  O  3  X    0.018250  -0.020542  -0.163203   0.016662   0.164889
   26  O  3  Y    0.068170  -0.006751   0.268002  -0.134393   0.109128
   27  O  3  Z   -0.006698   0.003296   0.007441   0.006153  -0.025863
   28  N  4  S   -0.184711   0.057431   0.077658   0.020244   0.030575
   29  N  4  S    0.170213  -0.054577  -0.072893  -0.015858  -0.013017
   30  N  4  X    0.062943  -0.059062  -0.027625  -0.182691  -0.086058
   31  N  4  Y   -0.124620   0.002783  -0.045225  -0.180276  -0.158683
   32  N  4  Z   -0.002294   0.008727   0.006646   0.036874   0.023404
   33  N  4  S    0.561771  -0.179332  -0.275682  -0.079486  -0.202791
   34  N  4  X    0.070249  -0.039744  -0.014116  -0.119620  -0.078924
   35  N  4  Y   -0.112970   0.015426  -0.013621  -0.107281  -0.072071
   36  N  4  Z   -0.004239   0.004845   0.002658   0.023338   0.016949
   37  H  5  S    0.014401   0.102686  -0.038045  -0.055844   0.120419
   38  H  5  S   -0.008007   0.005813  -0.021937  -0.033007   0.087953
   39  H  6  S    0.014297   0.104015  -0.035857  -0.062545   0.105947
   40  H  6  S   -0.006573   0.005050  -0.019979  -0.038739   0.082465
   41  H  7  S    0.012349   0.109225  -0.034888  -0.111769  -0.076499
   42  H  7  S    0.000702   0.009986  -0.030478  -0.071810  -0.088191
   43  H  8  S   -0.062313  -0.011658  -0.209164   0.088198  -0.062924
   44  H  8  S   -0.031726  -0.003149  -0.151092   0.059002  -0.042523
   45  H  9  S    0.088880  -0.056969  -0.075890  -0.171041  -0.115609
   46  H  9  S    0.008503  -0.024874  -0.045318  -0.127691  -0.095398

                     11         12         13         14         15
                   -0.4482    -0.4065    -0.3702    -0.3389    -0.2434
                     A          A          A          A          A   
    1  C  1  S    0.000338  -0.009501  -0.000127  -0.025047   0.003219
    2  C  1  S   -0.000400   0.011833  -0.000147   0.020041  -0.001195
    3  C  1  X    0.055404  -0.058587  -0.036965   0.237508  -0.018147
    4  C  1  Y    0.023865   0.328589  -0.009365   0.030957  -0.012510
    5  C  1  Z    0.311873  -0.016676  -0.218838  -0.041252  -0.051621
    6  C  1  S   -0.001846   0.032800   0.001221   0.191926  -0.035202
    7  C  1  X    0.045471  -0.057922  -0.031020   0.206661  -0.035134
    8  C  1  Y    0.012569   0.231759  -0.012580   0.044722  -0.001159
    9  C  1  Z    0.244934  -0.013102  -0.189955  -0.042152  -0.074379
   10  C  2  S    0.000195   0.005742   0.000322   0.005976   0.007405
   11  C  2  S   -0.000975  -0.014552  -0.000399  -0.014011  -0.010798
   12  C  2  X    0.028202  -0.070536   0.028957  -0.206783   0.032241
   13  C  2  Y    0.000370  -0.210285   0.009370  -0.087177  -0.003508
   14  C  2  Z    0.212500   0.014284   0.189333   0.036260   0.203938
   15  C  2  S    0.001568   0.007264  -0.000649   0.037025  -0.013959
   16  C  2  X    0.021833  -0.062098   0.030158  -0.017153   0.005786
   17  C  2  Y    0.004793  -0.100460   0.013118   0.064951   0.001810
   18  C  2  Z    0.178966   0.008288   0.219494   0.000807   0.197061
   19  O  3  S    0.001635  -0.002353   0.000315  -0.064688  -0.005868
   20  O  3  S   -0.001585  -0.000532  -0.000410   0.059651   0.003895
   21  O  3  X    0.019366  -0.054626   0.048958   0.358298  -0.060621
   22  O  3  Y    0.004982  -0.005535   0.022227   0.180907  -0.005077
   23  O  3  Z    0.168167   0.000942   0.357886  -0.061073  -0.310518
   24  O  3  S   -0.005960   0.028840  -0.000550   0.265752   0.038673
   25  O  3  X    0.019942  -0.054150   0.051874   0.401343  -0.077362
   26  O  3  Y    0.005449  -0.003231   0.024477   0.170209  -0.007660
   27  O  3  Z    0.170258   0.000567   0.384244  -0.066887  -0.378380
   28  N  4  S   -0.001029  -0.004692   0.000066   0.007380  -0.018191
   29  N  4  S    0.000811   0.000010  -0.000070   0.003024   0.014471
   30  N  4  X    0.019667   0.076881   0.017134  -0.003753  -0.008409
   31  N  4  Y    0.015310   0.207792   0.007665   0.097355   0.056170
   32  N  4  Z    0.094216  -0.026949   0.115695  -0.003490   0.363887
   33  N  4  S    0.003915   0.021013  -0.000949  -0.121045   0.083720
   34  N  4  X    0.016201   0.059028   0.013981  -0.025698  -0.002496
   35  N  4  Y    0.011913   0.157426   0.006374   0.108604   0.061853
   36  N  4  Z    0.073648  -0.021400   0.093250  -0.001007   0.409246
   37  H  5  S   -0.156954   0.101635   0.129720  -0.084077   0.042900
   38  H  5  S   -0.117870   0.083000   0.127904  -0.107059   0.023759
   39  H  6  S    0.177443   0.053793  -0.146669  -0.069607  -0.049760
   40  H  6  S    0.138443   0.042183  -0.142892  -0.087682  -0.032480
   41  H  7  S   -0.027342  -0.241122   0.016823   0.039970   0.011180
   42  H  7  S   -0.027804  -0.250742   0.011016  -0.001779   0.032846
   43  H  8  S    0.001982  -0.014655  -0.000271  -0.115142  -0.011000
   44  H  8  S    0.000211  -0.039464   0.001167  -0.074888  -0.015318
   45  H  9  S    0.007289   0.126130   0.000498   0.047281  -0.020717
   46  H  9  S    0.005875   0.130280   0.000663   0.097250  -0.017011

                     16         17         18         19         20
                   -0.2415     0.0424     0.0782     0.1449     0.1579
                     A          A          A          A          A   
    1  C  1  S    0.017657   0.001133   0.070641  -0.000709  -0.154959
    2  C  1  S   -0.009064  -0.000303  -0.042777   0.005292   0.071119
    3  C  1  X   -0.047906   0.008165   0.001205  -0.143243  -0.128109
    4  C  1  Y   -0.067533   0.008649   0.139696   0.151017   0.057801
    5  C  1  Z    0.022699   0.030317   0.001406   0.023817   0.050431
    6  C  1  S   -0.181525  -0.012878  -0.768377  -0.033413   2.075072
    7  C  1  X   -0.070356   0.064512   0.176844  -0.617486  -0.338538
    8  C  1  Y   -0.072367   0.030525   0.445918   0.622321   0.219927
    9  C  1  Z    0.039746   0.284975  -0.019758   0.094572   0.170917
   10  C  2  S    0.040965   0.001758  -0.004265   0.017563   0.024916
   11  C  2  S   -0.060846   0.000208  -0.001981  -0.000566   0.021099
   12  C  2  X    0.009122   0.064929   0.072130  -0.178640   0.080504
   13  C  2  Y   -0.089773   0.025236  -0.007812   0.090443   0.014138
   14  C  2  Z   -0.031712   0.427225  -0.034304   0.018478  -0.031342
   15  C  2  S   -0.061941  -0.025156  -0.027260  -0.182413  -0.405664
   16  C  2  X   -0.155301   0.083383   0.135947  -0.321186   0.226463
   17  C  2  Y   -0.010543   0.042231   0.198328  -0.040611   0.169084
   18  C  2  Z   -0.011760   0.525484  -0.070361   0.038540  -0.090174
   19  O  3  S   -0.034198   0.002585   0.079234  -0.046838   0.030850
   20  O  3  S    0.020827  -0.001774  -0.048731   0.026371  -0.015641
   21  O  3  X   -0.076526  -0.027088   0.033135  -0.139574  -0.018082
   22  O  3  Y    0.080354   0.000607   0.231198  -0.021116   0.117676
   23  O  3  Z    0.060942  -0.192670  -0.006782   0.028549   0.002584
   24  O  3  S    0.237435  -0.020679  -0.671400   0.416133  -0.293782
   25  O  3  X   -0.120913  -0.039753   0.033366  -0.233633  -0.045360
   26  O  3  Y    0.090619   0.005547   0.417198   0.008140   0.216316
   27  O  3  Z    0.079053  -0.260573  -0.013490   0.039617   0.005887
   28  N  4  S   -0.105403   0.001054   0.024760   0.066949  -0.035880
   29  N  4  S    0.086747  -0.000761  -0.016030  -0.041016   0.022053
   30  N  4  X   -0.365091  -0.048404  -0.055642  -0.098546   0.037140
   31  N  4  Y    0.210890  -0.018099   0.056555  -0.064161   0.047340
   32  N  4  Z   -0.021145  -0.323583   0.020789   0.014042   0.002970
   33  N  4  S    0.459197  -0.009304  -0.259308  -0.548991   0.309693
   34  N  4  X   -0.366324  -0.078397  -0.115676  -0.255894   0.133520
   35  N  4  Y    0.244228  -0.028939   0.105299  -0.192959   0.087031
   36  N  4  Z   -0.030403  -0.506880   0.039224   0.048327  -0.002947
   37  H  5  S   -0.012091   0.089891   0.020195  -0.076207  -0.022133
   38  H  5  S    0.028051   0.406949   0.299082  -0.691167  -1.025807
   39  H  6  S    0.008896  -0.100909   0.018517  -0.050704  -0.032830
   40  H  6  S    0.027508  -0.440067   0.316827  -0.532903  -1.183180
   41  H  7  S    0.029198   0.012518  -0.000603   0.114442  -0.015456
   42  H  7  S    0.062626   0.070945   0.719579   1.036566  -0.460961
   43  H  8  S   -0.064259   0.004163   0.121670  -0.016612   0.078038
   44  H  8  S   -0.082293   0.040554   1.033906  -0.258700   0.573985
   45  H  9  S   -0.121726   0.001004  -0.005802   0.117743  -0.060280
   46  H  9  S   -0.104133   0.007387   0.136413   0.871243  -0.453835

                     21         22         23         24         25
                    0.1889     0.1988     0.2465     0.3706     0.4516
                     A          A          A          A          A   
    1  C  1  S    0.023120   0.014200   0.092189  -0.040868  -0.007321
    2  C  1  S   -0.001701  -0.005804  -0.025267  -0.009092   0.008952
    3  C  1  X    0.027964   0.101770  -0.251179  -0.032764   0.042847
    4  C  1  Y    0.254678   0.074950  -0.012716   0.117229  -0.122311
    5  C  1  Z   -0.107478   0.345026   0.069738   0.019929   0.007867
    6  C  1  S   -0.447183  -0.240464  -1.225142   0.882747   0.332304
    7  C  1  X    0.037929   0.336836  -1.314590   0.534829   0.549033
    8  C  1  Y    0.833232   0.249542  -0.420989   0.920561  -0.500345
    9  C  1  Z   -0.385887   1.246406   0.309494  -0.105954  -0.047373
   10  C  2  S    0.048336   0.021043  -0.172930  -0.043192  -0.063937
   11  C  2  S   -0.023904  -0.008714   0.095864   0.006167   0.003025
   12  C  2  X    0.006829  -0.038680  -0.081520   0.498731  -0.055447
   13  C  2  Y    0.028451   0.002423  -0.229879  -0.001502   0.307921
   14  C  2  Z    0.041272  -0.163363   0.021484  -0.074746  -0.011659
   15  C  2  S   -0.543634  -0.255099   2.196001   0.266382   1.410783
   16  C  2  X    0.128297  -0.054214  -0.526732   1.561361  -0.452939
   17  C  2  Y    0.053438  -0.026544  -0.638760   0.443459   2.394528
   18  C  2  Z    0.082009  -0.405653   0.103246  -0.262977  -0.066963
   19  O  3  S   -0.045385  -0.021571   0.045047   0.069956  -0.019980
   20  O  3  S    0.039139   0.015334  -0.032496  -0.050117  -0.000072
   21  O  3  X   -0.031619  -0.005081   0.189668   0.175902  -0.118471
   22  O  3  Y   -0.017595  -0.011003  -0.062780  -0.274740  -0.016967
   23  O  3  Z   -0.002342   0.053639  -0.020333  -0.005304   0.014073
   24  O  3  S    0.341747   0.181609  -0.400126  -0.636354   0.404412
   25  O  3  X   -0.088804  -0.027265   0.392492   0.413581  -0.326314
   26  O  3  Y   -0.061445  -0.025044  -0.106883  -0.640575  -0.054547
   27  O  3  Z   -0.006674   0.109357  -0.046872  -0.019509   0.048447
   28  N  4  S   -0.067102  -0.017459   0.013933   0.038764   0.125122
   29  N  4  S    0.028818   0.005563  -0.017533  -0.024827  -0.038724
   30  N  4  X    0.220621   0.081251   0.066300  -0.125293   0.110699
   31  N  4  Y    0.054733   0.001822   0.141250   0.087321   0.281798
   32  N  4  Z   -0.072129   0.111470  -0.015978   0.013054  -0.026562
   33  N  4  S    0.739516   0.212194  -0.054268  -0.540181  -1.998265
   34  N  4  X    0.462217   0.145285   0.241030  -0.464286   0.240786
   35  N  4  Y    0.096603  -0.015324   0.330705   0.288865   1.358455
   36  N  4  Z   -0.128997   0.183773  -0.049803   0.054551  -0.107421
   37  H  5  S   -0.021698   0.064474  -0.046929   0.036721  -0.066571
   38  H  5  S   -0.402117   1.319881  -0.241475  -0.174620   0.280201
   39  H  6  S    0.025205  -0.059916  -0.056417   0.035959  -0.044095
   40  H  6  S    0.403786  -1.236497  -0.318638  -0.168874   0.150113
   41  H  7  S    0.072328   0.024386  -0.031113   0.054409   0.146877
   42  H  7  S    1.169234   0.450485   0.437347   0.559852  -0.554000
   43  H  8  S   -0.058640  -0.029907  -0.037477  -0.009945   0.132779
   44  H  8  S   -0.338826  -0.186020  -0.035328  -0.592188   0.171288
   45  H  9  S   -0.046216  -0.001162  -0.021997  -0.108287  -0.020080
   46  H  9  S   -1.034373  -0.226420  -0.307094   0.203401  -0.468211

                     26         27         28         29         30
                    0.7050     0.7125     0.7415     0.8266     0.8298
                     A          A          A          A          A   
    1  C  1  S    0.003053   0.032493   0.018027   0.005162   0.005443
    2  C  1  S   -0.013045  -0.121925  -0.053966  -0.029640  -0.039425
    3  C  1  X   -0.134687  -0.617068  -0.620009   0.271655   0.103467
    4  C  1  Y   -0.088040  -0.630119   0.173933  -0.107766  -0.112720
    5  C  1  Z   -0.460966   0.184152   0.094291   0.489942  -0.514493
    6  C  1  S    0.039591   0.271801   0.006893   0.632396   0.724873
    7  C  1  X    0.229557   0.980134   1.003942  -0.323297   0.125701
    8  C  1  Y    0.155065   1.044840  -0.336067   0.638973   0.698584
    9  C  1  Z    0.772941  -0.299507  -0.140476  -1.184600   1.111556
   10  C  2  S   -0.001380  -0.009770  -0.015125   0.021208   0.022789
   11  C  2  S    0.003911  -0.010065  -0.050152  -0.207989  -0.217125
   12  C  2  X   -0.106183  -0.037039  -0.464506  -0.659057  -0.553620
   13  C  2  Y   -0.109015  -0.415868   0.581457  -0.212996  -0.195265
   14  C  2  Z   -0.772129   0.122605   0.010370  -0.362857   0.548029
   15  C  2  S   -0.107229  -0.932721   0.086611  -0.052120  -0.049156
   16  C  2  X    0.124346   0.381267   0.483536   1.632355   1.445058
   17  C  2  Y    0.118085   0.459465  -0.120512   0.096654   0.169153
   18  C  2  Z    0.611048  -0.163702  -0.034123   0.630140  -1.079931
   19  O  3  S   -0.000923  -0.001553  -0.016884   0.025660   0.022976
   20  O  3  S   -0.001650  -0.016406   0.026335  -0.003145  -0.000977
   21  O  3  X    0.003351   0.066040  -0.040424  -0.152693  -0.132994
   22  O  3  Y   -0.012808   0.000711   0.017263  -0.011925  -0.029288
   23  O  3  Z   -0.057237  -0.001508   0.000747  -0.048574   0.098758
   24  O  3  S    0.019698   0.070880  -0.089117  -0.561048  -0.541557
   25  O  3  X   -0.020250  -0.055028  -0.022401   0.130784   0.141339
   26  O  3  Y   -0.021282  -0.087283  -0.076502  -0.161590  -0.178608
   27  O  3  Z   -0.069322   0.022028   0.005016  -0.108441   0.084112
   28  N  4  S   -0.000590  -0.006007   0.025311  -0.024035  -0.022285
   29  N  4  S   -0.003971  -0.026084   0.000236   0.022129   0.020098
   30  N  4  X    0.008373   0.119046  -0.029247  -0.003169   0.046806
   31  N  4  Y   -0.003491   0.001943   0.082503   0.040151   0.057213
   32  N  4  Z   -0.062038  -0.011010   0.001574  -0.140458   0.117647
   33  N  4  S   -0.004850   0.074790  -0.131045   0.121333   0.037023
   34  N  4  X   -0.028957  -0.140739  -0.014485  -0.242326  -0.231574
   35  N  4  Y   -0.037238  -0.270959   0.329587  -0.136182  -0.097093
   36  N  4  Z   -0.064423   0.045162  -0.022627  -0.048498   0.133792
   37  H  5  S    0.340496   0.021343   0.308931  -0.207355   0.153772
   38  H  5  S    0.074312   0.111036   0.134479  -0.383013   0.156444
   39  H  6  S   -0.385494   0.132633   0.214901   0.179074  -0.219006
   40  H  6  S   -0.055415   0.131476   0.115820   0.229813  -0.346773
   41  H  7  S    0.094924   0.312192  -0.279662   0.068039   0.111278
   42  H  7  S    0.014279   0.128311  -0.010230   0.229221   0.264260
   43  H  8  S   -0.037192  -0.167564  -0.150678   0.160560   0.106015
   44  H  8  S    0.017810   0.101714  -0.169225  -0.209356  -0.197398
   45  H  9  S    0.032347   0.258893  -0.115846  -0.159391  -0.172441
   46  H  9  S   -0.025266  -0.211678   0.014845  -0.041167  -0.050282

                     31         32         33         34         35
                    0.8683     0.9634     1.0077     1.0274     1.0352
                     A          A          A          A          A   
    1  C  1  S    0.005719   0.057119   0.077965  -0.026871   0.011649
    2  C  1  S    0.003048  -0.088448  -0.113927   0.021489  -0.009040
    3  C  1  X   -0.331829   0.152152   0.304452   0.117133   0.109589
    4  C  1  Y    0.627897  -0.147987   0.229373   0.081938   0.051423
    5  C  1  Z    0.033890  -0.059349  -0.086465   0.105696   0.686494
    6  C  1  S    0.397762  -0.258036   0.172346   0.498710  -0.113548
    7  C  1  X    1.157142  -0.267196  -0.258561   0.122240  -0.176134
    8  C  1  Y   -1.478689   0.453640  -0.462877  -0.095733  -0.092308
    9  C  1  Z   -0.152230   0.114590   0.048076  -0.170284  -0.769736
   10  C  2  S    0.019230  -0.052396  -0.018430  -0.010326   0.002274
   11  C  2  S   -0.065985   0.492882   0.325889  -0.224624   0.049442
   12  C  2  X    0.004328  -0.035071  -0.030985  -0.103826   0.056376
   13  C  2  Y   -0.755301   0.168533  -0.105432  -0.001876  -0.002560
   14  C  2  Z    0.022969   0.004008  -0.007077   0.040873   0.148574
   15  C  2  S    0.083994  -0.666972   0.161691   0.264961  -0.009644
   16  C  2  X   -0.448627  -0.023308  -0.341117   0.611501  -0.224116
   17  C  2  Y    2.101170  -0.911439   0.513395   0.604344  -0.092483
   18  C  2  Z   -0.010304   0.024154   0.062732  -0.151404  -0.150469
   19  O  3  S   -0.008644   0.023495  -0.021034   0.001456  -0.001758
   20  O  3  S   -0.022438  -0.046254   0.031754   0.007162   0.002122
   21  O  3  X    0.039237   0.197904  -0.145039  -0.073189   0.010718
   22  O  3  Y    0.047456   0.214787  -0.182308  -0.132212   0.032239
   23  O  3  Z   -0.023503  -0.033110   0.018067   0.035559   0.101902
   24  O  3  S    0.542870   0.038345   0.086372  -0.181818   0.047412
   25  O  3  X   -0.267448  -0.034279  -0.015829   0.044514  -0.012525
   26  O  3  Y    0.023880   0.217813  -0.046880  -0.111668   0.023349
   27  O  3  Z    0.036989  -0.008596   0.007004  -0.006133  -0.037652
   28  N  4  S   -0.009033  -0.006058   0.009630   0.035508  -0.007549
   29  N  4  S    0.048271   0.000029   0.017472  -0.062438   0.020473
   30  N  4  X   -0.085260  -0.234942  -0.092448  -0.498190   0.055692
   31  N  4  Y   -0.147012   0.165505  -0.085784   0.292386  -0.068667
   32  N  4  Z    0.033805   0.026032   0.018967   0.053459  -0.014110
   33  N  4  S   -0.966283   0.641194  -0.330050  -0.215566   0.019387
   34  N  4  X    0.181895   0.133239   0.166781   0.021926   0.045096
   35  N  4  Y    0.268006  -0.349407   0.284877  -0.190077   0.057998
   36  N  4  Z   -0.057951   0.004396  -0.049668   0.016784   0.039146
   37  H  5  S    0.126444   0.434420   0.479889   0.088682   0.788688
   38  H  5  S    0.403211  -0.331832  -0.296324  -0.192605  -1.105682
   39  H  6  S    0.131950   0.408464   0.619521  -0.208339  -0.792428
   40  H  6  S    0.269054  -0.346996  -0.437622   0.229410   1.217848
   41  H  7  S   -0.122466   0.224644   0.573868  -0.248213   0.218720
   42  H  7  S   -0.733962   0.326639  -0.683187   0.036286  -0.250697
   43  H  8  S    0.343201   0.916478  -0.741864  -0.249836   0.013710
   44  H  8  S   -0.076820  -0.727381   0.802353   0.168628   0.040971
   45  H  9  S   -0.044785   0.236091  -0.031324   1.034309  -0.175316
   46  H  9  S   -0.183246  -0.096952  -0.054079  -0.951935   0.153914

                     36         37         38         39         40
                    1.0500     1.1821     1.2339     1.3404     1.4829
                     A          A          A          A          A   
    1  C  1  S   -0.007248   0.000970   0.010458  -0.032411   0.035107
    2  C  1  S    0.033485  -0.014541  -0.060859   0.621223  -0.318598
    3  C  1  X    0.302233  -0.036464   0.091603  -0.124751   0.004381
    4  C  1  Y   -0.492413   0.033950   0.028892  -0.215068  -0.209516
    5  C  1  Z   -0.012189  -0.102701  -0.025997   0.021690  -0.016045
    6  C  1  S    0.092684   0.027641   0.262875  -0.790578  -0.542154
    7  C  1  X   -0.091270   0.113757  -0.171769   0.500177  -0.683924
    8  C  1  Y    0.313856  -0.051325   0.090357   0.586583  -0.136620
    9  C  1  Z   -0.004678   0.421697   0.042399  -0.083315   0.218160
   10  C  2  S    0.000808   0.000582   0.017658   0.002384   0.009312
   11  C  2  S    0.031218  -0.013317  -0.422957   0.869763  -1.116491
   12  C  2  X    0.074079   0.017944  -0.070278  -0.190070   0.209599
   13  C  2  Y   -0.232942   0.009969   0.075011  -0.105189   0.040973
   14  C  2  Z    0.006018   0.132671   0.003603   0.035748  -0.021657
   15  C  2  S    0.082799   0.025138   1.750859  -0.883557   2.167107
   16  C  2  X   -0.308341  -0.081976   0.793356   0.126103  -1.326843
   17  C  2  Y    0.935383  -0.006483   0.400713   0.650330  -0.129750
   18  C  2  Z   -0.022925  -0.572420  -0.130559  -0.063872   0.129621
   19  O  3  S   -0.021332   0.000172   0.025488  -0.015850  -0.015706
   20  O  3  S    0.037565  -0.000984  -0.020239   0.047133   0.049675
   21  O  3  X    0.002557   0.025718  -0.016127  -0.027283   0.075952
   22  O  3  Y   -0.077148   0.013682   0.212255  -0.114598   0.215371
   23  O  3  Z    0.022191   0.155909  -0.007924   0.032746  -0.138002
   24  O  3  S    0.298048   0.001002  -0.466253   0.178453   0.134291
   25  O  3  X   -0.141822  -0.008541   0.217750  -0.111856  -0.048377
   26  O  3  Y   -0.010077  -0.006660  -0.389962   0.121954  -0.175268
   27  O  3  Z    0.011536  -0.036844  -0.011646  -0.010155   0.144443
   28  N  4  S    0.016737   0.001144   0.071500   0.000466  -0.021037
   29  N  4  S   -0.046298  -0.002802  -0.183141  -0.000939   0.023745
   30  N  4  X    0.122716  -0.146615   0.236878  -0.561214  -0.655943
   31  N  4  Y   -0.058208  -0.061939  -0.820874  -0.511092  -0.141315
   32  N  4  Z   -0.058634  -1.015764   0.024381   0.103842   0.089224
   33  N  4  S   -0.519437  -0.016800  -0.545692   0.035007  -0.192266
   34  N  4  X    0.032742   0.160729  -0.565222   0.873641   1.405899
   35  N  4  Y    0.272974   0.077253   1.316727   0.897740   0.499363
   36  N  4  Z    0.022003   1.152035  -0.005731  -0.167755  -0.198638
   37  H  5  S    0.549288  -0.011634   0.090465  -0.231229   0.122907
   38  H  5  S   -0.678950   0.235045  -0.186955   0.519006  -0.326401
   39  H  6  S    0.328291  -0.016240   0.094612  -0.208366   0.127002
   40  H  6  S   -0.413892  -0.181968  -0.195311   0.485059  -0.403008
   41  H  7  S   -1.003796   0.042603   0.061707  -0.100068   0.103114
   42  H  7  S    1.203400  -0.077204   0.053927   0.563796   0.017609
   43  H  8  S   -0.098928   0.003671   0.127799  -0.062611  -0.043491
   44  H  8  S    0.059703  -0.003299  -0.297552   0.186946  -0.050296
   45  H  9  S   -0.139974   0.011850   0.629038  -0.175528  -0.458951
   46  H  9  S    0.029272  -0.011044  -0.701898  -0.513844  -0.289648

                     41         42         43         44         45
                    1.4906     1.6170     1.7966     1.9981     2.6423
                     A          A          A          A          A   
    1  C  1  S   -0.004871   0.018094  -0.021314  -0.077463   0.022684
    2  C  1  S    0.027232   0.087553  -1.366601  -1.441795   0.299868
    3  C  1  X    0.007138  -0.145242  -0.069433   0.052107  -0.034799
    4  C  1  Y    0.008334  -0.077073  -0.034448   0.038975   0.005196
    5  C  1  Z    0.010537   0.001613   0.016815  -0.003883   0.008813
    6  C  1  S    0.096967  -0.913393   2.531620   4.408332  -1.383170
    7  C  1  X    0.112387  -0.154612   0.084484   0.948175  -0.565532
    8  C  1  Y    0.088528   0.011749   0.004924   0.663269   0.044056
    9  C  1  Z    0.197588   0.107808  -0.027925  -0.205733   0.074016
   10  C  2  S   -0.000024  -0.015258   0.027683   0.036756   0.005077
   11  C  2  S    0.147679  -0.002054   0.123335   0.864500  -0.097047
   12  C  2  X   -0.016875   0.322475   0.027325  -0.084190   0.045922
   13  C  2  Y    0.003316  -0.009766   0.066732  -0.130455  -0.078281
   14  C  2  Z    0.125287  -0.043731  -0.011360   0.018908  -0.002241
   15  C  2  S   -0.304544   0.879529  -1.099136  -2.475385  -1.377597
   16  C  2  X    0.092908  -0.360799  -0.264584   1.861450  -0.776976
   17  C  2  Y   -0.012977  -0.815123  -0.097470   1.370248  -2.339749
   18  C  2  Z   -0.636321   0.075363   0.056971  -0.355066   0.246874
   19  O  3  S    0.001036   0.051914   0.003331  -0.010504   0.003396
   20  O  3  S   -0.002392  -0.212018   0.006683  -0.026314  -0.078971
   21  O  3  X   -0.138469  -0.944435  -0.054465  -0.055261  -0.119964
   22  O  3  Y   -0.093204   0.134438  -0.723064   0.617510  -0.142645
   23  O  3  Z   -0.982437   0.113239   0.063077  -0.026218   0.024215
   24  O  3  S   -0.015327  -0.036013   0.077516   0.152112   0.165099
   25  O  3  X    0.147073   1.327042  -0.069694  -0.053609   0.240255
   26  O  3  Y    0.097798  -0.154336   1.259254  -1.270588   0.598587
   27  O  3  Z    1.100956  -0.162410  -0.081731   0.080628  -0.067237
   28  N  4  S    0.002397  -0.017851  -0.011567   0.018389  -0.017420
   29  N  4  S   -0.006017   0.192294  -0.003481  -0.287957  -1.905729
   30  N  4  X    0.043024  -0.046807  -0.065670  -0.065632  -0.096175
   31  N  4  Y   -0.007819   0.014082  -0.217337   0.039404   0.193272
   32  N  4  Z   -0.152371   0.001470   0.026804   0.009905   0.005044
   33  N  4  S    0.039899   0.050432   0.414533   0.129851   4.058443
   34  N  4  X   -0.099190   0.114682   0.233000  -0.211327   0.611132
   35  N  4  Y   -0.018987  -0.075010   0.163488  -0.013875  -1.383749
   36  N  4  Z    0.344781  -0.001982  -0.053931   0.029460  -0.018095
   37  H  5  S    0.082268   0.071841  -0.146926  -0.299983   0.027772
   38  H  5  S   -0.016897   0.047812  -0.459371  -0.374035   0.049285
   39  H  6  S   -0.132582   0.069659  -0.144751  -0.305464   0.036081
   40  H  6  S    0.084246  -0.036879  -0.454462  -0.341150   0.086775
   41  H  7  S   -0.009445  -0.035140  -0.109087  -0.301285   0.155865
   42  H  7  S    0.041576   0.310543  -0.575779  -0.345190   0.120434
   43  H  8  S    0.009629   0.277077   0.399165  -0.422913   0.200034
   44  H  8  S    0.003206  -0.480229   0.304425  -0.232476  -0.093306
   45  H  9  S    0.050485   0.000517   0.002519  -0.031883  -0.381750
   46  H  9  S    0.017063   0.073658  -0.223127  -0.140228  -0.156344

                     46
                    3.0942
                     A   
    1  C  1  S   -0.007653
    2  C  1  S   -0.014122
    3  C  1  X    0.024784
    4  C  1  Y    0.019979
    5  C  1  Z   -0.000558
    6  C  1  S    0.076025
    7  C  1  X    0.274810
    8  C  1  Y   -0.367350
    9  C  1  Z   -0.034665
   10  C  2  S    0.039516
   11  C  2  S    0.040084
   12  C  2  X   -0.144768
   13  C  2  Y    0.061242
   14  C  2  Z    0.017668
   15  C  2  S   -0.854732
   16  C  2  X   -1.026477
   17  C  2  Y    0.920307
   18  C  2  Z    0.097262
   19  O  3  S    0.054854
   20  O  3  S   -1.749622
   21  O  3  X    0.231421
   22  O  3  Y   -0.033930
   23  O  3  Z   -0.030357
   24  O  3  S    2.727809
   25  O  3  X   -0.854423
   26  O  3  Y    0.096739
   27  O  3  Z    0.116307
   28  N  4  S   -0.001053
   29  N  4  S    0.058037
   30  N  4  X   -0.063700
   31  N  4  Y   -0.036318
   32  N  4  Z    0.010218
   33  N  4  S   -0.316792
   34  N  4  X    0.409622
   35  N  4  Y    0.186342
   36  N  4  Z   -0.067344
   37  H  5  S    0.031720
   38  H  5  S    0.057769
   39  H  6  S    0.008678
   40  H  6  S    0.064290
   41  H  7  S   -0.093248
   42  H  7  S   -0.120670
   43  H  8  S   -0.314163
   44  H  8  S   -0.093788
   45  H  9  S   -0.094738
   46  H  9  S   -0.081625
 ...... END OF RHF CALCULATION ......
 STEP CPU TIME =     6.21 TOTAL CPU TIME =          6.2 (      0.1 MIN)
 TOTAL WALL CLOCK TIME=          7.2 SECONDS, CPU UTILIZATION IS    86.67%

     ---------------------------------------------------------------------
     PROPERTIES FOR THE B3LYP    DFT FUNCTIONAL (RHF  TYPE) DENSITY MATRIX
     ---------------------------------------------------------------------

          -----------------
          ENERGY COMPONENTS
          -----------------

         WAVEFUNCTION NORMALIZATION =       1.0000000000

                ONE ELECTRON ENERGY =    -521.7155379615
                TWO ELECTRON ENERGY =     192.8007971193
           NUCLEAR REPULSION ENERGY =     121.0158071264
                                      ------------------
                       TOTAL ENERGY =    -207.8989337159

 ELECTRON-ELECTRON POTENTIAL ENERGY =     192.8007971193
  NUCLEUS-ELECTRON POTENTIAL ENERGY =    -728.1564677794
   NUCLEUS-NUCLEUS POTENTIAL ENERGY =     121.0158071264
                                      ------------------
             TOTAL POTENTIAL ENERGY =    -414.3398635337
               TOTAL KINETIC ENERGY =     206.4409298179
                 VIRIAL RATIO (V/T) =       2.0070625718

          ---------------------------------------
          MULLIKEN AND LOWDIN POPULATION ANALYSES
          ---------------------------------------

     ATOMIC MULLIKEN POPULATION IN EACH MOLECULAR ORBITAL

                      1          2          3          4          5

                  2.000000   2.000000   2.000000   2.000000   2.000000

    1            -0.000067   0.000073   0.006545   1.983694   0.016572
    2             0.005250   0.011677   1.994016   0.006551   0.219978
    3             1.993919  -0.000016  -0.000787  -0.000005   1.589534
    4            -0.000017   1.986903  -0.000110   0.000028   0.066500
    5            -0.000000   0.000002   0.000061   0.003209   0.000108
    6            -0.000001  -0.000000   0.000072   0.003212  -0.000148
    7             0.000008  -0.000000   0.000027   0.003309  -0.001072
    8             0.000897   0.000001   0.000055   0.000000   0.106494
    9             0.000012   0.001361   0.000121   0.000002   0.002035

                      6          7          8          9         10

                  2.000000   2.000000   2.000000   2.000000   2.000000

    1             0.036408   1.288469   0.070676   0.387618   0.535170
    2             0.374474   0.284413   0.357982   0.486868   0.335209
    3             0.181554   0.040086   0.971650   0.183107   0.467522
    4             1.299814   0.116089   0.186155   0.472752   0.238663
    5            -0.000603   0.074614   0.015247   0.028515   0.127584
    6            -0.000197   0.075599   0.013315   0.036181   0.101222
    7             0.000740   0.089305   0.016033   0.111496   0.061021
    8             0.039085   0.000463   0.321275   0.048682   0.027686
    9             0.068725   0.030963   0.047666   0.244782   0.105924

                     11         12         13         14         15

                  2.000000   2.000000   2.000000   2.000000   2.000000

    1             0.794962   0.743492   0.329992   0.354385   0.018798
    2             0.409803   0.181446   0.307301   0.159870   0.262622
    3             0.223658   0.017433   0.941111   1.230035   0.634493
    4             0.079666   0.291237   0.103737   0.047856   1.056883
    5             0.211438   0.082147   0.139658   0.064816   0.009555
    6             0.272861   0.021877   0.176303   0.044902   0.012957
    7             0.007181   0.519132   0.001894   0.006374   0.001596
    8             0.000015   0.008526   0.000002   0.056066   0.000929
    9             0.000415   0.134709   0.000002   0.035697   0.002167

                     16

                  2.000000

    1             0.046135
    2             0.095378
    3             0.094975
    4             1.646851
    5             0.001297
    6             0.001921
    7             0.007965
    8             0.030509
    9             0.074968

               ----- POPULATIONS IN EACH AO -----
                             MULLIKEN      LOWDIN
              1  C  1  S      1.98661     1.97422
              2  C  1  S      0.36930     0.42568
              3  C  1  X      0.56760     0.53745
              4  C  1  Y      0.56089     0.52122
              5  C  1  Z      0.57868     0.54005
              6  C  1  S      1.12653     0.58115
              7  C  1  X      0.42968     0.56375
              8  C  1  Y      0.43448     0.55625
              9  C  1  Z      0.55915     0.60029
             10  C  2  S      1.98453     1.97378
             11  C  2  S      0.42837     0.42804
             12  C  2  X      0.52951     0.49773
             13  C  2  Y      0.64170     0.60909
             14  C  2  Z      0.45547     0.43389
             15  C  2  S      0.58421     0.51130
             16  C  2  X      0.22914     0.43646
             17  C  2  Y      0.11367     0.43902
             18  C  2  Z      0.52622     0.53924
             19  O  3  S      1.98494     1.97872
             20  O  3  S      0.42309     0.57682
             21  O  3  X      0.71537     0.70904
             22  O  3  Y      0.62319     0.59132
             23  O  3  Z      0.82586     0.83148
             24  O  3  S      1.50054     1.00023
             25  O  3  X      0.84204     0.88269
             26  O  3  Y      0.66846     0.72041
             27  O  3  Z      0.98477     0.97992
             28  N  4  S      1.98821     1.97984
             29  N  4  S      0.39659     0.52842
             30  N  4  X      0.64864     0.62360
             31  N  4  Y      0.62607     0.60459
             32  N  4  Z      0.53510     0.52470
             33  N  4  S      1.45645     0.86970
             34  N  4  X      0.70256     0.77611
             35  N  4  Y      0.55401     0.68616
             36  N  4  Z      0.68538     0.71249
             37  H  5  S      0.46389     0.45982
             38  H  5  S      0.29376     0.41478
             39  H  6  S      0.46427     0.46068
             40  H  6  S      0.29581     0.41596
             41  H  7  S      0.47439     0.47121
             42  H  7  S      0.35062     0.44262
             43  H  8  S      0.43669     0.44111
             44  H  8  S      0.20399     0.31021
             45  H  9  S      0.46285     0.45861
             46  H  9  S      0.28670     0.38015

          ----- MULLIKEN ATOMIC OVERLAP POPULATIONS -----
          (OFF-DIAGONAL ELEMENTS NEED TO BE MULTIPLIED BY 2)

             1           2           3           4           5

    1    5.5512152
    2    0.1790613   4.7805622
    3   -0.0796128   0.2366423   8.2321879
    4   -0.0930361   0.4845126  -0.0686842   6.9651746
    5    0.3510249  -0.0296677   0.0017012   0.0005577   0.4736294
    6    0.3574702  -0.0351064   0.0014220  -0.0005009  -0.0165283
    7    0.3384139  -0.0343557  -0.0001945   0.0022718  -0.0229181
    8   -0.0003030  -0.0290744   0.2472118   0.0046175   0.0000214
    9    0.0086874  -0.0597378  -0.0024044   0.2980926  -0.0001717

             6           7           8           9

    6    0.4771491
    7   -0.0237250   0.5607482
    8    0.0000524   0.0049758   0.4131901
    9   -0.0001554  -0.0002076  -0.0000068   0.5054509

          TOTAL MULLIKEN AND LOWDIN ATOMIC POPULATIONS
       ATOM         MULL.POP.    CHARGE          LOW.POP.     CHARGE
    1 C             6.612921   -0.612921         6.300071   -0.300071
    2 C             5.492836    0.507164         5.868543    0.131457
    3 O             8.568269   -0.568269         8.270633   -0.270633
    4 N             7.593006   -0.593006         7.305600   -0.305600
    5 H             0.757649    0.242351         0.874602    0.125398
    6 H             0.760078    0.239922         0.876644    0.123356
    7 H             0.825009    0.174991         0.913827    0.086173
    8 H             0.640685    0.359315         0.751319    0.248681
    9 H             0.749547    0.250453         0.838761    0.161239

          -------------------------------
          BOND ORDER AND VALENCE ANALYSIS     BOND ORDER THRESHOLD=0.050
          -------------------------------

                   BOND                       BOND                       BOND
  ATOM PAIR DIST  ORDER      ATOM PAIR DIST  ORDER      ATOM PAIR DIST  ORDER
    1   2  1.509  0.902        1   5  1.094  0.903        1   6  1.094  0.903
    1   7  1.094  0.913        2   3  1.355  0.965        2   4  1.284  1.788
    3   4  2.284  0.122        3   8  0.970  0.805        4   9  1.027  0.862

                       TOTAL       BONDED        FREE
      ATOM            VALENCE     VALENCE     VALENCE
    1 C                 3.638       3.638      -0.000
    2 C                 3.666       3.666       0.000
    3 O                 1.937       1.937      -0.000
    4 N                 2.816       2.816       0.000
    5 H                 0.905       0.905       0.000
    6 H                 0.903       0.903      -0.000
    7 H                 0.926       0.926      -0.000
    8 H                 0.853       0.853      -0.000
    9 H                 0.912       0.912       0.000

          ---------------------
          ELECTROSTATIC MOMENTS
          ---------------------

 POINT   1           X           Y           Z (BOHR)    CHARGE
                 0.000001    0.000000    0.000001        0.00 (A.U.)
         DX          DY          DZ         /D/  (DEBYE)
     0.091033   -3.286233    0.210537    3.294229
 ...... END OF PROPERTY EVALUATION ......
 STEP CPU TIME =     0.01 TOTAL CPU TIME =          6.2 (      0.1 MIN)
 TOTAL WALL CLOCK TIME=          7.2 SECONDS, CPU UTILIZATION IS    86.21%

 BEGINNING ONE ELECTRON GRADIENT...
 ..... END OF 1-ELECTRON GRADIENT ......
 STEP CPU TIME =     0.01 TOTAL CPU TIME =          6.3 (      0.1 MIN)
 TOTAL WALL CLOCK TIME=          7.3 SECONDS, CPU UTILIZATION IS    86.23%

          ----------------------
          GRADIENT OF THE ENERGY
          ----------------------
 MEMORY FOR GRID POINT CONTRIBUTIONS TO THE DFT GRADIENT=    587967 WORDS.
 STEP CPU TIME =     1.55 TOTAL CPU TIME =          7.8 (      0.1 MIN)
 TOTAL WALL CLOCK TIME=          8.8 SECONDS, CPU UTILIZATION IS    88.35%
 THE COARSE/FINE SCHWARZ SCREENINGS SKIPPED         5552/        2826 BLOCKS.
 THE NUMBER OF GRADIENT INTEGRAL BLOCKS COMPUTED WAS     23639
 ...... END OF 2-ELECTRON GRADIENT ......
 STEP CPU TIME =     0.03 TOTAL CPU TIME =          7.8 (      0.1 MIN)
 TOTAL WALL CLOCK TIME=          8.9 SECONDS, CPU UTILIZATION IS    88.19%

          NSERCH=  0     ENERGY=    -207.8989337

                                 -----------------------
                                 GRADIENT (HARTREE/BOHR)
                                 -----------------------
        ATOM     ZNUC       DE/DX         DE/DY         DE/DZ
 --------------------------------------------------------------
    1  C            6.0     0.0031007    -0.0013395     0.0006585
    2  C            6.0     0.0162170    -0.0302247    -0.0002592
    3  O            8.0    -0.0290233     0.0002490     0.0039229
    4  N            7.0     0.0106307     0.0186118    -0.0018089
    5  H            1.0     0.0012194    -0.0004009    -0.0026006
    6  H            1.0     0.0027172     0.0006196     0.0004340
    7  H            1.0     0.0012317     0.0010297    -0.0002376
    8  H            1.0     0.0002078     0.0188104    -0.0011937
    9  H            1.0    -0.0063013    -0.0073555     0.0010846

          MAXIMUM GRADIENT = 0.0302247    RMS GRADIENT = 0.0105026

 NSERCH:   0  E=     -207.8989337159  GRAD. MAX=  0.0302247  R.M.S.=  0.0105026

          FORCE CONSTANT MATRIX NOT UPDATED --- TAKING FIRST STEP
          MIN SEARCH, CORRECT HESSIAN, TRYING PURE NR STEP
               NR STEP HAS LENGTH         =   1.894425
          TRIM/QA LAMBDA FOR NON-TS MODES =  -0.00227791
          TRIM/QA STEP HAS LENGTH         =   0.300000
          RADIUS OF STEP TAKEN=   0.30000  CURRENT TRUST RADIUS=   0.30000

 BEGINNING GEOMETRY SEARCH POINT NSERCH=   1 ...

 COORDINATES OF ALL ATOMS ARE (ANGS)
   ATOM   CHARGE       X              Y              Z
 ------------------------------------------------------------
 C           6.0  -1.2231260224  -0.7533144736   0.2257031477
 C           6.0   0.0005712644   0.0964045071  -0.0363620590
 O           8.0   1.2196449503  -0.5570894413  -0.1076978197
 N           7.0  -0.0956771266   1.3578813366  -0.1519506249
 H           1.0  -2.0386675077  -0.4798213046  -0.4530608328
 H           1.0  -1.6062686996  -0.5793339122   1.2368747664
 H           1.0  -1.0084320709  -1.8198828600   0.1107779473
 H           1.0   1.0780682595  -1.5436247986  -0.0711077703
 H           1.0   0.8635469530   1.7803409466  -0.1733567547

          INTERNUCLEAR DISTANCES (ANGS.)
          ------------------------------

                1 C          2 C          3 O          4 N          5 H     

   1 C       0.0000000    1.5126584 *  2.4732146 *  2.4229963 *  1.0957312 *
   2 C       1.5126584 *  0.0000000    1.3850212 *  1.2704126 *  2.1596687 *
   3 O       2.4732146 *  1.3850212 *  0.0000000    2.3236057 *  3.2774756  
   4 N       2.4229963 *  1.2704126 *  2.3236057 *  0.0000000    2.6912878 *
   5 H       1.0957312 *  2.1596687 *  3.2774756    2.6912878 *  0.0000000  
   6 H       1.0952331 *  2.1586313 *  3.1295620    2.8219720 *  1.7472132 *
   7 H       1.0940153 *  2.1706900 *  2.5703514 *  3.3166750    1.7818710 *
   8 H       2.4511594 *  1.9626266 *  0.9973138 *  3.1309666    3.3153594  
   9 H       3.3064880    1.8971390 *  2.3653113 *  1.0483516 *  3.6890943  

                6 H          7 H          8 H          9 H     

   1 C       1.0952331 *  1.0940153 *  2.4511594 *  3.3064880  
   2 C       2.1586313 *  2.1706900 *  1.9626266 *  1.8971390 *
   3 O       3.1295620    2.5703514 *  0.9973138 *  2.3653113 *
   4 N       2.8219720 *  3.3166750    3.1309666    1.0483516 *
   5 H       1.7472132 *  1.7818710 *  3.3153594    3.6890943  
   6 H       0.0000000    1.7788941 *  3.1378878    3.6955118  
   7 H       1.7788941 *  0.0000000    2.1125540 *  4.0677573  
   8 H       3.1378878    2.1125540 *  0.0000000    3.3324499  
   9 H       3.6955118    4.0677573    3.3324499    0.0000000  

  * ... LESS THAN  3.000

 ...... END OF ONE-ELECTRON INTEGRALS ......
 STEP CPU TIME =     0.00 TOTAL CPU TIME =          7.8 (      0.1 MIN)
 TOTAL WALL CLOCK TIME=          8.9 SECONDS, CPU UTILIZATION IS    88.09%
  ...... END OF TWO-ELECTRON INTEGRALS .....
 STEP CPU TIME =     0.01 TOTAL CPU TIME =          7.8 (      0.1 MIN)
 TOTAL WALL CLOCK TIME=          8.9 SECONDS, CPU UTILIZATION IS    88.00%

          --------------------------
             R-B3LYP SCF CALCULATION
          --------------------------
         DENSITY MATRIX CONVERGENCE THRESHOLD=  1.00E-04
     COARSE -> FINE DFT GRID SWITCH THRESHOLD=  1.50E-03 (SWITCH IN $DFT)
                   HF -> DFT SWITCH THRESHOLD=  5.00E-03 (SWOFF IN $DFT)

 DIRECT SCF CALCULATION, SCHWRZ=T   FDIFF=T,  DIRTHR=  0.00E+00 NITDIR=10

 DFT CODE IS SWITCHING FROM THE FINE GRID NRAD= 96,  NLEB=  590
                      TO THE COARSE GRID NRAD0= 24, NLEB0=  110

                                                                                   NONZERO     BLOCKS
 ITER EX DEM     TOTAL ENERGY        E CHANGE  DENSITY CHANGE    DIIS ERROR      INTEGRALS    SKIPPED
          * * *   INITIATING DIIS PROCEDURE   * * *
   1  0  0     -207.8917022099  -207.8917022099   0.025332599   0.028096797         537278       4844
   2  1  0     -207.8978522211    -0.0061500112   0.015370020   0.012446337         531990       6357
   3  2  0     -207.8976031245     0.0002490966   0.008895411   0.018314635         527496       7016
   4  3  0     -207.8981743036    -0.0005711790   0.002249397   0.003433375         525534       7263
   5  4  0     -207.8981913995    -0.0000170959   0.000581940   0.000969232         516532       8103
 DFT CODE IS SWITCHING BACK TO THE FINE GRID
          * * *   INITIATING DIIS PROCEDURE   * * *
   6  5  0     -207.9001875086    -0.0019961091   0.001679071   0.001518398         537274       4846
   7  6  0     -207.9001966047    -0.0000090961   0.000632539   0.000651849         515931       8126
   8  7  0     -207.9001964347     0.0000001700   0.000335437   0.000760979         511486       8590
   9  8  0     -207.9001974895    -0.0000010548   0.000124734   0.000158453         506657       8961
  10  9  0     -207.9001975379    -0.0000000484   0.000040499   0.000059777         495275       9982
  11 10  0     -207.9001975463    -0.0000000084   0.000015908   0.000015390         485414      10703

          -----------------
          DENSITY CONVERGED
          -----------------
     TIME TO FORM FOCK OPERATORS=       4.9 SECONDS (       0.4 SEC/ITER)
     FOCK TIME ON FIRST ITERATION=       0.1, LAST ITERATION=       0.8
     TIME TO SOLVE SCF EQUATIONS=       0.1 SECONDS (       0.0 SEC/ITER)

 FINAL R-B3LYP ENERGY IS     -207.9001975463 AFTER  11 ITERATIONS
 DFT EXCHANGE + CORRELATION ENERGY =       -22.6270365811
 TOTAL ELECTRON NUMBER             =        31.9999986775
 ...... END OF RHF CALCULATION ......
 STEP CPU TIME =     5.15 TOTAL CPU TIME =         13.0 (      0.2 MIN)
 TOTAL WALL CLOCK TIME=         14.5 SECONDS, CPU UTILIZATION IS    89.41%
 ..... END OF 1-ELECTRON GRADIENT ......
 STEP CPU TIME =     0.00 TOTAL CPU TIME =         13.0 (      0.2 MIN)
 TOTAL WALL CLOCK TIME=         14.5 SECONDS, CPU UTILIZATION IS    89.35%
 MEMORY FOR GRID POINT CONTRIBUTIONS TO THE DFT GRADIENT=    587967 WORDS.
 STEP CPU TIME =     1.56 TOTAL CPU TIME =         14.6 (      0.2 MIN)
 TOTAL WALL CLOCK TIME=         16.1 SECONDS, CPU UTILIZATION IS    90.32%
 ...... END OF 2-ELECTRON GRADIENT ......
 STEP CPU TIME =     0.03 TOTAL CPU TIME =         14.6 (      0.2 MIN)
 TOTAL WALL CLOCK TIME=         16.2 SECONDS, CPU UTILIZATION IS    90.28%

          NSERCH=  1     ENERGY=    -207.9001975

                                 -----------------------
                                 GRADIENT (HARTREE/BOHR)
                                 -----------------------
        ATOM     ZNUC       DE/DX         DE/DY         DE/DZ
 --------------------------------------------------------------
    1  C            6.0     0.0070516     0.0036142     0.0029472
    2  C            6.0     0.0117732    -0.0047001     0.0009921
    3  O            8.0    -0.0052866     0.0094188    -0.0020893
    4  N            7.0    -0.0126098    -0.0040737    -0.0082514
    5  H            1.0    -0.0033527    -0.0005655     0.0012360
    6  H            1.0    -0.0036094    -0.0000107    -0.0016166
    7  H            1.0     0.0016919     0.0011684     0.0003517
    8  H            1.0    -0.0037445    -0.0037945    -0.0007311
    9  H            1.0     0.0080862    -0.0010569     0.0071615

          MAXIMUM GRADIENT = 0.0126098    RMS GRADIENT = 0.0053669

 NSERCH:   1  E=     -207.9001975463  GRAD. MAX=  0.0126098  R.M.S.=  0.0053669

          HESSIAN UPDATED USING THE BFGS FORMULA
             ACTUAL ENERGY CHANGE WAS  -0.0012638304
          PREDICTED ENERGY CHANGE WAS  -0.0025359840 RATIO=  0.498
          MIN SEARCH, CORRECT HESSIAN, TRYING PURE NR STEP
               NR STEP HAS LENGTH         =  33.720583
          TRIM/QA LAMBDA FOR NON-TS MODES =  -0.03560027
          TRIM/QA STEP HAS LENGTH         =   0.300000
          RADIUS OF STEP TAKEN=   0.30000  CURRENT TRUST RADIUS=   0.30000

 BEGINNING GEOMETRY SEARCH POINT NSERCH=   2 ...

 COORDINATES OF ALL ATOMS ARE (ANGS)
   ATOM   CHARGE       X              Y              Z
 ------------------------------------------------------------
 C           6.0  -1.2299655292  -0.7548998684   0.2120045045
 C           6.0  -0.0065391974   0.1024275694  -0.0592208046
 O           8.0   1.2462710181  -0.5678072361  -0.0828680109
 N           7.0  -0.0779794167   1.3563150059  -0.0461859317
 H           1.0  -2.0416578019  -0.4639470102  -0.4582823580
 H           1.0  -1.5987683927  -0.5906317847   1.2326020232
 H           1.0  -1.0215752434  -1.8234915010   0.0993121250
 H           1.0   1.0830101835  -1.5662028111  -0.0536900852
 H           1.0   0.8368643797   1.8097976363  -0.2638514623

          INTERNUCLEAR DISTANCES (ANGS.)
          ------------------------------

                1 C          2 C          3 O          4 N          5 H     

   1 C       0.0000000    1.5183364 *  2.5007401 *  2.4188763 *  1.0921458 *
   2 C       1.5183364 *  0.0000000    1.4210233 *  1.2559886 *  2.1498228 *
   3 O       2.5007401 *  1.4210233 *  0.0000000    2.3360717 *  3.3109211  
   4 N       2.4188763 *  1.2559886 *  2.3360717 *  0.0000000    2.7090976 *
   5 H       1.0921458 *  2.1498228 *  3.3109211    2.7090976 *  0.0000000  
[...]
                   Z  0.99578423-14.52424273 -0.18253715  0.00748327 -0.62166260
               TOTAL 14.16120493 17.48491046  0.26585937  0.03182794  0.74078790

                            6           7           8           9          10
       FREQUENCY:         6.01      188.82      336.72      406.69      522.57  
        SYMMETRY:         A           A           A           A           A   
    REDUCED MASS:      4.53508     1.07133     1.14377     2.60784     3.22537
    IR INTENSITY:      0.06828     0.01007     3.37438     0.05596     0.66652

  1   C            X  0.03845924  0.00032159  0.00009568 -0.09628388 -0.08223366
                   Y -0.07728170 -0.00069084 -0.00460812  0.07050450 -0.07712913
                   Z -0.04734075 -0.00210001 -0.01627103 -0.02217177  0.02019829
  2   C            X -0.00654986 -0.00045160 -0.00094861  0.03249228 -0.07989290
                   Y -0.00335891  0.00494594  0.01041838 -0.08058902 -0.02083670
                   Z -0.00793653  0.01696187  0.03651405  0.02345047  0.01020669
  3   O            X  0.02248683 -0.00093760  0.00166930  0.11073835 -0.01589777
                   Y  0.10241360  0.01053035 -0.02263382  0.05256508  0.11345679
                   Z  0.14012255  0.03704075 -0.07743821 -0.01248931 -0.03385153
  4   N            X -0.06701969  0.00095753 -0.00027071 -0.05057288  0.13911401
                   Y -0.03467904 -0.01382825  0.00361733 -0.08537429 -0.01114828
                   Z -0.10264142 -0.04888452  0.01269223  0.02330989  0.00441320
  5   H            X  0.01086685 -0.01217334  0.00087894  0.07365562 -0.12270120
                   Y -0.15746512  0.14835193 -0.01050812  0.30546311 -0.13055649
                   Z -0.16581852  0.50557918 -0.03791104 -0.08460667  0.02896540
  6   H            X -0.02132840  0.26690419 -0.06126751 -0.26641444 -0.05342474
                   Y -0.00380252 -0.47179515 -0.04183672  0.07992792 -0.08391831
                   Z -0.02314864 -0.16219593 -0.02872136 -0.02567434  0.01793694
  7   H            X  0.15910596 -0.25172518  0.06216427 -0.27093019 -0.03910472
                   Y -0.12572801  0.30521189  0.02097947  0.07688114 -0.07519579
                   Z  0.01718217 -0.40320205 -0.04409704 -0.03083109  0.01908306
  8   H            X  0.06900101 -0.00165420 -0.01380593  0.24982221  0.18388919
                   Y  0.11327500  0.01744169  0.26089146  0.03435265  0.08955253
                   Z  0.19792643  0.06031537  0.88428254 -0.00564779 -0.02871072
  9   H            X -0.09086641  0.00175923 -0.00053704 -0.08131714  0.28118793
                   Y  0.02593216 -0.02453241  0.01032138 -0.02459051 -0.27915880
                   Z -0.05750736 -0.08655023  0.03796251  0.00586351  0.07663420

 TRANS. SAYVETZ    X -0.06812305 -0.00001348  0.00000889  0.00008151  0.00002263
                   Y  0.03585096  0.00033513  0.00007532 -0.00001474  0.00000383
                   Z  0.10901379 -0.00045458 -0.00010496 -0.00000989  0.00000626
               TOTAL  0.13345429  0.00056492  0.00012949  0.00008342  0.00002379

   ROT. SAYVETZ    X -6.43020124 -0.07717312 -0.01941768  0.00146425 -0.00005929
                   Y -6.87758457  0.01232632  0.01619623 -0.00128052  0.00606960
                   Z 11.58264647  0.00382385  0.00106076  0.00801356  0.00373551
               TOTAL 14.92669946  0.07824481  0.02530789  0.00824626  0.00712724

                           11          12          13          14          15
       FREQUENCY:       535.32      820.37      935.34     1017.93     1113.12  
        SYMMETRY:         A           A           A           A           A   
    REDUCED MASS:      2.25920     4.70886     1.31327     1.93903     1.47434
    IR INTENSITY:      0.36528     0.93775     2.23263     0.31710     0.00057

  1   C            X  0.00202089 -0.14025330  0.00004365  0.00615505 -0.00138704
                   Y  0.00003434 -0.08746682 -0.00213612 -0.11638741  0.03475144
                   Z -0.00781222  0.02223078 -0.00540764  0.03316348  0.12485183
  2   C            X -0.00186347  0.01605103 -0.00160276  0.12115874  0.00105183
                   Y  0.05837347  0.06959705  0.02444720  0.00546312 -0.02987514
                   Z  0.20215686 -0.02001928  0.08474336  0.00100282 -0.10476705
  3   O            X  0.00142286  0.12267998  0.00054730 -0.08536820  0.00086562
                   Y -0.01510851 -0.06085520 -0.00796029  0.04226181  0.00213309
                   Z -0.04127981  0.02000395 -0.02682669 -0.01393751  0.00795032
  4   N            X -0.00270928  0.00265897  0.00204130  0.03480007 -0.00074584
                   Y -0.01440356  0.09720929 -0.02737875  0.01356127 -0.00022842
                   Z -0.05166641 -0.02743914 -0.09812946 -0.00289275 -0.00456190
  5   H            X  0.00977981 -0.19245847 -0.00103029  0.27451436  0.01435776
                   Y -0.05432911 -0.15306081  0.01735360  0.26234096 -0.06515046
                   Z -0.20712165  0.04004903  0.05819476 -0.06844722 -0.25007446
  6   H            X -0.25797587 -0.09318313  0.04424787 -0.31569688 -0.35840979
                   Y -0.15922632 -0.08763246  0.04472067 -0.04173606 -0.36840141
                   Z -0.07770641  0.02317409  0.01588430  0.04616439 -0.04697024
  7   H            X  0.26197224 -0.09303988 -0.04705004 -0.31936802  0.35263861
                   Y  0.10028390 -0.08671975 -0.03054110 -0.06885674  0.29001103
                   Z -0.14112310  0.02262788  0.03553213 -0.02801658 -0.22564152
  8   H            X  0.00064107 -0.07336321  0.00333020 -0.18570591 -0.00761003
                   Y -0.05991584 -0.04486216 -0.02455727  0.06135698 -0.00224049
                   Z -0.19465071  0.01153354 -0.08215388 -0.01984757 -0.01022393
  9   H            X -0.00123575 -0.05307789 -0.01798251 -0.09831984 -0.00036111
                   Y -0.08236446  0.20021465  0.23409815  0.24850202  0.05704604
                   Z -0.32049390 -0.05994330  0.81711826 -0.07527559  0.23096804

 TRANS. SAYVETZ    X -0.00000600 -0.00001343 -0.00000015 -0.00000349 -0.00000080
                   Y -0.00001126  0.00001083 -0.00001720  0.00000105  0.00000597
                   Z -0.00007932  0.00000137  0.00000893 -0.00000137 -0.00000331
               TOTAL  0.00008034  0.00001731  0.00001938  0.00000389  0.00000687

   ROT. SAYVETZ    X  0.00030344 -0.00054541  0.00033175 -0.00025106 -0.00187505
                   Y  0.00461086 -0.00036337 -0.00089902 -0.00130657  0.00169723
                   Z -0.00332220 -0.00136882  0.00088726 -0.00106121 -0.00022555
               TOTAL  0.00569114  0.00151763  0.00130595  0.00170186  0.00253915

                           16          17          18          19          20
       FREQUENCY:      1116.44     1232.09     1326.65     1449.45     1538.17  
        SYMMETRY:         A           A           A           A           A   
    REDUCED MASS:      1.59803     1.24246     2.33631     1.21451     1.05520
    IR INTENSITY:      1.23115     2.67507     5.97253     0.42963     0.05051

  1   C            X -0.07837108  0.01914016 -0.05441381 -0.10202142  0.02455497
                   Y  0.04813328 -0.02117493  0.01736786 -0.06800966 -0.04242469
                   Z -0.01313882  0.00704530 -0.00609961  0.01715595  0.01275963
  2   C            X  0.09017548 -0.01638969  0.18539371  0.01040920  0.02575734
                   Y -0.00964157 -0.01098038 -0.02191474 -0.00010322  0.01654255
                   Z  0.00254717  0.00147699  0.01015972  0.00023105 -0.00417273
  3   O            X -0.05668424 -0.04988129 -0.04457438 -0.00164141 -0.00540633
                   Y  0.02868621 -0.05084254  0.00677530  0.00103416 -0.00104836
                   Z -0.00912083  0.01412205 -0.00282625 -0.00032036  0.00025108
  4   N            X  0.05230516 -0.00566537 -0.07941403 -0.00473415 -0.00790656
                   Y -0.07828179  0.08252480  0.04984609  0.00327421 -0.01878990
                   Z  0.02330094 -0.02338478 -0.01593823 -0.00101560  0.00517350
  5   H            X -0.28588308  0.09754452 -0.16112919  0.27053743 -0.19357641
                   Y -0.25557191  0.08998034 -0.13827636  0.42636904 -0.30939935
                   Z  0.06214902 -0.02496252  0.03516018 -0.11636190  0.09052285
  6   H            X  0.20305320 -0.05367089  0.05247980  0.44775470 -0.14874857
                   Y -0.04730195 -0.00436323 -0.08912520  0.22828277  0.57746643
                   Z -0.03195465  0.00694119 -0.03180723  0.12429739  0.21068345
  7   H            X  0.21543457 -0.05129939  0.04972400  0.45781028 -0.12625617
                   Y -0.00723811 -0.00642574 -0.05568837  0.13009729  0.36903871
                   Z  0.05224602 -0.00744139  0.07609329 -0.20594375 -0.49493526
  8   H            X  0.17423151  0.85644685  0.05012510 -0.01620646  0.05336660
                   Y  0.00833148 -0.13802963  0.00582138  0.00285965 -0.00620949
                   Z  0.00088614  0.05501246 -0.00083173 -0.00127146  0.00261173
  9   H            X -0.27453434 -0.01140088  0.26007994  0.02275600  0.01180787
                   Y  0.47585667  0.10198624 -0.46870687 -0.03850628 -0.04500634
                   Z -0.13620999 -0.03023452  0.13935016  0.01145121  0.01300849

 TRANS. SAYVETZ    X -0.00001918  0.00000088  0.00000114  0.00001280 -0.00000538
                   Y -0.00001304  0.00000053 -0.00000675 -0.00000004  0.00000397
                   Z  0.00000067 -0.00000036  0.00000177  0.00000004  0.00000130
               TOTAL  0.00002320  0.00000109  0.00000707  0.00001280  0.00000681

   ROT. SAYVETZ    X  0.00000404 -0.00000081 -0.00022133 -0.00014028  0.00059935
                   Y  0.00017899  0.00132964  0.00058453 -0.00001167  0.00056257
                   Z -0.00127835  0.00188169  0.00021863 -0.00111439  0.00079016
               TOTAL  0.00129083  0.00230407  0.00066217  0.00112325  0.00114020

                           21          22          23          24          25
       FREQUENCY:      1556.75     1775.42     3046.64     3094.21     3180.74  
        SYMMETRY:         A           A           A           A           A   
    REDUCED MASS:      1.04289     5.58111     1.03919     1.09853     1.09428
    IR INTENSITY:      0.30458     2.30079     0.23196     0.34666     0.05836

  1   C            X  0.00122866 -0.00806772  0.01930241  0.00262236 -0.06101413
                   Y -0.01408464 -0.01887763  0.04726200 -0.02361768  0.05591281
                   Z -0.04947378  0.00529098 -0.01161892 -0.08334159 -0.01814462
  2   C            X  0.00056411  0.01682196 -0.00122154  0.00002679 -0.00109460
                   Y -0.00556753  0.22019706  0.00146171 -0.00024114  0.00236416
                   Z -0.01918462 -0.06271201 -0.00042571 -0.00089641 -0.00070733
  3   O            X -0.00007637 -0.00659241  0.00028107 -0.00000395  0.00060687
                   Y  0.00083841 -0.02229116 -0.00035492  0.00008038 -0.00055925
                   Z  0.00284558  0.00637043  0.00009993  0.00024713  0.00017151
  4   N            X -0.00003463 -0.01185810  0.00054363  0.00001373  0.00087175
                   Y  0.00014030 -0.12649262 -0.00052309 -0.00006012  0.00011792
                   Z  0.00025570  0.03585208  0.00017015 -0.00018192 -0.00001488
  5   H            X -0.01667602  0.05287935 -0.22126250 -0.00552449  0.74943236
                   Y  0.19827586  0.07520107  0.16243899 -0.00289753 -0.50337179
                   Z  0.67411201 -0.02092203 -0.05262099 -0.02624653  0.16625924
  6   H            X -0.46388083 -0.04137122 -0.01498697 -0.01619544 -0.01668689
                   Y  0.12119355 -0.07443076 -0.20177986 -0.24108297 -0.04768498
                   Z  0.00593674 -0.02111025  0.61819562  0.64004295  0.17300901
  7   H            X  0.46072705 -0.04400573  0.01144373 -0.00991832 -0.00922840
                   Y -0.09746366 -0.05190980 -0.52528257  0.52912356 -0.13127702
                   Z  0.09898088  0.05609765 -0.42686041  0.39235959 -0.11841852
  8   H            X  0.00018028  0.18992907  0.00356252  0.00008949  0.00303380
                   Y -0.00473579 -0.02692280  0.00025364 -0.00118381  0.00317326
                   Z -0.01620948  0.01091888  0.00007655 -0.00362737 -0.00085660
  9   H            X -0.00000592  0.00772540 -0.00605629 -0.00012314 -0.00877718
                   Y  0.00146937 -0.20769760 -0.00287328 -0.00031691 -0.00749597
                   Z  0.00597296  0.05947262  0.00067010 -0.00091659  0.00195859

 TRANS. SAYVETZ    X -0.00000245  0.00000530  0.00000046 -0.00000082 -0.00000046
                   Y -0.00000012  0.00000716  0.00000103 -0.00000012  0.00000011
                   Z  0.00000338 -0.00000101 -0.00000237 -0.00000085 -0.00000019
               TOTAL  0.00000418  0.00000897  0.00000262  0.00000119  0.00000052

   ROT. SAYVETZ    X -0.00038029 -0.00002528  0.00022974 -0.00013914  0.00013372
                   Y  0.00080912  0.00027495 -0.00014234 -0.00018294  0.00003870
                   Z  0.00029663  0.00043235 -0.00004843 -0.00006060 -0.00008865
               TOTAL  0.00094196  0.00051299  0.00027457  0.00023770  0.00016503

                           26          27
       FREQUENCY:      3331.16     3498.36  
        SYMMETRY:         A           A   
    REDUCED MASS:      1.07368     1.06593
    IR INTENSITY:      0.05586     0.11781

  1   C            X  0.00028236 -0.00004022
                   Y  0.00084251  0.00051101
                   Z -0.00025212 -0.00016001
  2   C            X -0.00653424 -0.00326484
                   Y  0.00569396 -0.00320139
                   Z -0.00176545  0.00086888
  3   O            X  0.00031683 -0.00410028
                   Y  0.00123761 -0.05759593
                   Z -0.00035689  0.01691745
  4   N            X -0.05565181 -0.00066514
                   Y -0.03820547  0.00054650
                   Z  0.00969087 -0.00017336
  5   H            X  0.01029316 -0.00462374
                   Y -0.00206683  0.00007592
                   Z  0.00088449 -0.00014907
  6   H            X -0.00124288  0.00124514
                   Y -0.00392028  0.00176688
                   Z  0.00544534 -0.00096853
  7   H            X -0.00106420  0.00119932
                   Y -0.00624770  0.00216164
                   Z -0.00243991  0.00001112
  8   H            X -0.00140592  0.10095268
                   Y -0.01714695  0.92239833
                   Z  0.00502380 -0.27034274
  9   H            X  0.83607393  0.01489485
                   Y  0.46274806  0.01212813
                   Z -0.11387483 -0.00307398

 TRANS. SAYVETZ    X -0.00000319 -0.00000056
                   Y -0.00000341  0.00000127
                   Z  0.00000024  0.00000059
               TOTAL  0.00000467  0.00000151

   ROT. SAYVETZ    X  0.00001921 -0.00018829
                   Y -0.00003986 -0.00003351
                   Z -0.00011697 -0.00014884
               TOTAL  0.00012506  0.00024234

 REFERENCE ON SAYVETZ CONDITIONS - A. SAYVETZ, J.CHEM.PHYS., 7, 383-389(1939).

 NOTE - THE MODES J,K ARE ORTHONORMALIZED ACCORDING TO
 SUM ON I   M(I) * (X(I,J)*X(I,K) + Y(I,J)*Y(I,K) + Z(I,J)*Z(I,K)) = DELTA(J,K)

  MODE FREQ(CM**-1)  SYMMETRY  RED. MASS  IR INTENS.
     1       8.276    A        3.049406    0.088275
     2       4.207    A        4.083200    0.100827
     3       0.091    A        6.499571    0.000008
     4       0.009    A        6.560730    0.000000
     5       0.179    A        6.652692    0.000191
     6       6.006    A        4.535080    0.068276
     7     188.822    A        1.071331    0.010069
     8     336.722    A        1.143773    3.374376
     9     406.687    A        2.607836    0.055955
    10     522.567    A        3.225371    0.666517
    11     535.324    A        2.259200    0.365277
    12     820.368    A        4.708860    0.937752
    13     935.344    A        1.313265    2.232629
    14    1017.930    A        1.939026    0.317096
    15    1113.116    A        1.474337    0.000570
    16    1116.437    A        1.598034    1.231147
    17    1232.088    A        1.242463    2.675075
    18    1326.647    A        2.336309    5.972530
    19    1449.448    A        1.214513    0.429629
    20    1538.169    A        1.055201    0.050509
    21    1556.755    A        1.042893    0.304583
    22    1775.424    A        5.581113    2.300790
    23    3046.643    A        1.039194    0.231955
    24    3094.213    A        1.098528    0.346656
    25    3180.736    A        1.094278    0.058364
    26    3331.161    A        1.073676    0.055864
    27    3498.364    A        1.065928    0.117809

     -------------------------------
     THERMOCHEMISTRY AT T=  298.15 K
     -------------------------------

 USING IDEAL GAS, RIGID ROTOR, HARMONIC NORMAL MODE APPROXIMATIONS.
 P=  1.01325E+05 PASCAL.
 ALL FREQUENCIES ARE SCALED BY   1.00000
 THE MOMENTS OF INERTIA ARE (IN AMU*BOHR**2)
            173.94020           196.60264           359.15273
 THE ROTATIONAL SYMMETRY NUMBER IS  1.0
 THE ROTATIONAL CONSTANTS ARE (IN GHZ)
     10.36614     9.17123     5.02039
      7 -     27 VIBRATIONAL MODES ARE USED IN THERMOCHEMISTRY.
 THE HARMONIC ZERO POINT ENERGY IS (SCALED BY   1.000)
        0.072954 HARTREE/MOLECULE    16011.482975 CM**-1/MOLECULE 
       45.779173 KCAL/MOL              191.540060 KJ/MOL

               Q               LN Q
 ELEC.     1.00000E+00       0.000000
 TRANS.    1.78296E+07      16.696370
 ROT.      3.96712E+04      10.588382
 VIB.      3.00610E+00       1.100644
 TOT.      2.12628E+12      28.385395

              E         H         G         CV        CP        S
           KJ/MOL    KJ/MOL    KJ/MOL   J/MOL-K   J/MOL-K   J/MOL-K
 ELEC.      0.000     0.000     0.000     0.000     0.000     0.000
 TRANS.     3.718     6.197   -41.389    12.472    20.786   159.606
 ROT.       3.718     3.718   -26.248    12.472    12.472   100.508
 VIB.     196.546   196.546   188.812    41.062    41.062    25.940
 TOTAL    203.983   206.462   121.174    66.005    74.319   286.055
 VIB. THERMAL CORRECTION E(T)-E(0) = H(T)-H(0) =      5005.710 J/MOL

              E         H         G         CV        CP        S
         KCAL/MOL  KCAL/MOL  KCAL/MOL CAL/MOL-K CAL/MOL-K CAL/MOL-K
 ELEC.      0.000     0.000     0.000     0.000     0.000     0.000
 TRANS.     0.889     1.481    -9.892     2.981     4.968    38.147
 ROT.       0.889     0.889    -6.273     2.981     2.981    24.022
 VIB.      46.976    46.976    45.127     9.814     9.814     6.200
 TOTAL     48.753    49.345    28.961    15.776    17.763    68.369
 VIB. THERMAL CORRECTION E(T)-E(0) = H(T)-H(0) =      1196.393 CAL/MOL
 ......END OF NORMAL COORDINATE ANALYSIS......
 STEP CPU TIME =     0.00 TOTAL CPU TIME =        596.5 (      9.9 MIN)
 TOTAL WALL CLOCK TIME=        621.9 SECONDS, CPU UTILIZATION IS    95.93%
                662120  WORDS OF DYNAMIC MEMORY USED
 EXECUTION OF GAMESS TERMINATED NORMALLY Fri Oct  7 21:37:28 2022
 DDI: 263640 bytes (0.3 MB / 0 MWords) used by master data server.

 ----------------------------------------
 CPU timing information for all processes
 ========================================
 0: 589.658 + 6.897 = 596.555
 ----------------------------------------
 ddikick.x: exited gracefully.
----- accounting info -----
Files used on the master node chemcompute-node-1.novalocal were:
-rw-r--r--. 1 chemcomp chemcomp     1001 Oct  7 21:27 /scratch/121642/461752.F05
-rw-rw-r--. 1 chemcomp chemcomp 70451200 Oct  7 21:37 /scratch/121642/461752.F10
-rw-rw-r--. 1 chemcomp chemcomp  4613504 Oct  7 21:37 /scratch/121642/461752.F22
Fri Oct  7 21:37:31 UTC 2022
0.100u 0.034s 10:25.23 0.0%	0+0k 8+208io 0pf+0w
Finishing Up...
Looking for IR data...
Looking for Raman data...
vibramans not found
Looking for thermodynamics data...
Looking for UV-Vis data...
chemcompute.org
{'UTCtimestamp': '2022-10-07T21:37:33.684414', 'cluster': 'jetstream2', 'clusterJobNumber': '121642', 'status': 'COMPLETE', 'nodeList': 'chemcompute-node-1'}
121642
